TITLE = "   5.0000E+02 [d]"
VARIABLES="X [m]","Y [m]","Z [m]","qlx [m/d]","qly [m/d]","qlz [m/d]","Material_ID"
ZONE T= "  5.00000E+02", I=   58, J=   38, K=    1, DATAPACKING=POINT
 5.000000E-03  2.500000E-03  5.000000E-01  2.434797E-04  7.516360E-11  0.000000E+00    2 
 1.500000E-02  2.500000E-03  5.000000E-01  2.434796E-04  6.706678E-11  0.000000E+00    2 
 2.500000E-02  2.500000E-03  5.000000E-01  2.434794E-04  6.358048E-11  0.000000E+00    2 
 3.500000E-02  2.500000E-03  5.000000E-01  2.434793E-04  6.137968E-11  0.000000E+00    2 
 4.500000E-02  2.500000E-03  5.000000E-01  2.434792E-04  5.975985E-11  0.000000E+00    2 
 5.500000E-02  2.500000E-03  5.000000E-01  2.434791E-04  5.847504E-11  0.000000E+00    2 
 6.500000E-02  2.500000E-03  5.000000E-01  2.434790E-04  5.740955E-11  0.000000E+00    2 
 7.500000E-02  2.500000E-03  5.000000E-01  2.434789E-04  5.649915E-11  0.000000E+00    2 
 8.500000E-02  2.500000E-03  5.000000E-01  2.434787E-04  5.570437E-11  0.000000E+00    2 
 9.500000E-02  2.500000E-03  5.000000E-01  2.434786E-04  5.499923E-11  0.000000E+00    2 
 1.100000E-01  2.500000E-03  5.000000E-01  2.434785E-04  5.404897E-11  0.000000E+00    2 
 1.300000E-01  2.500000E-03  5.000000E-01  2.434783E-04  5.299127E-11  0.000000E+00    2 
 1.500000E-01  2.500000E-03  5.000000E-01  2.434780E-04  5.208309E-11  0.000000E+00    2 
 1.700000E-01  2.500000E-03  5.000000E-01  2.434778E-04  5.128683E-11  0.000000E+00    2 
 1.900000E-01  2.500000E-03  5.000000E-01  2.434776E-04  5.057746E-11  0.000000E+00    2 
 2.100000E-01  2.500000E-03  5.000000E-01  2.434774E-04  4.993747E-11  0.000000E+00    2 
 2.300000E-01  2.500000E-03  5.000000E-01  2.434772E-04  4.935418E-11  0.000000E+00    2 
 2.500000E-01  2.500000E-03  5.000000E-01  2.434771E-04  4.881811E-11  0.000000E+00    2 
 2.700000E-01  2.500000E-03  5.000000E-01  2.434769E-04  4.832200E-11  0.000000E+00    2 
 2.900000E-01  2.500000E-03  5.000000E-01  2.434767E-04  4.786014E-11  0.000000E+00    2 
 3.250000E-01  2.500000E-03  5.000000E-01  2.434763E-04  4.710387E-11  0.000000E+00    2 
 3.750000E-01  2.500000E-03  5.000000E-01  2.434759E-04  4.616901E-11  0.000000E+00    2 
 4.250000E-01  2.500000E-03  5.000000E-01  2.434754E-04  4.534313E-11  0.000000E+00    2 
 4.750000E-01  2.500000E-03  5.000000E-01  2.434750E-04  4.460154E-11  0.000000E+00    2 
 5.250000E-01  2.500000E-03  5.000000E-01  2.434746E-04  4.392684E-11  0.000000E+00    2 
 5.750000E-01  2.500000E-03  5.000000E-01  2.434741E-04  4.330629E-11  0.000000E+00    2 
 6.250000E-01  2.500000E-03  5.000000E-01  2.434737E-04  4.273034E-11  0.000000E+00    2 
 6.750000E-01  2.500000E-03  5.000000E-01  2.434733E-04  4.219160E-11  0.000000E+00    2 
 7.250000E-01  2.500000E-03  5.000000E-01  2.434729E-04  4.168429E-11  0.000000E+00    2 
 7.750000E-01  2.500000E-03  5.000000E-01  2.434725E-04  4.120378E-11  0.000000E+00    2 
 8.250000E-01  2.500000E-03  5.000000E-01  2.434721E-04  4.074631E-11  0.000000E+00    2 
 8.750000E-01  2.500000E-03  5.000000E-01  2.434717E-04  4.030879E-11  0.000000E+00    2 
 9.250000E-01  2.500000E-03  5.000000E-01  2.434713E-04  3.988868E-11  0.000000E+00    2 
 9.750000E-01  2.500000E-03  5.000000E-01  2.434709E-04  3.948381E-11  0.000000E+00    2 
 1.050000E+00  2.500000E-03  5.000000E-01  2.434703E-04  3.889666E-11  0.000000E+00    2 
 1.150000E+00  2.500000E-03  5.000000E-01  2.434695E-04  3.815825E-11  0.000000E+00    2 
 1.250000E+00  2.500000E-03  5.000000E-01  2.434688E-04  3.745511E-11  0.000000E+00    2 
 1.350000E+00  2.500000E-03  5.000000E-01  2.434681E-04  3.678023E-11  0.000000E+00    2 
 1.450000E+00  2.500000E-03  5.000000E-01  2.434673E-04  3.612822E-11  0.000000E+00    2 
 1.550000E+00  2.500000E-03  5.000000E-01  2.434666E-04  3.549484E-11  0.000000E+00    2 
 1.650000E+00  2.500000E-03  5.000000E-01  2.434659E-04  3.487671E-11  0.000000E+00    2 
 1.750000E+00  2.500000E-03  5.000000E-01  2.434653E-04  3.427115E-11  0.000000E+00    2 
 1.850000E+00  2.500000E-03  5.000000E-01  2.434646E-04  3.367598E-11  0.000000E+00    2 
 1.950000E+00  2.500000E-03  5.000000E-01  2.434639E-04  3.308943E-11  0.000000E+00    2 
 2.100000E+00  2.500000E-03  5.000000E-01  2.434630E-04  3.222034E-11  0.000000E+00    2 
 2.300000E+00  2.500000E-03  5.000000E-01  2.434617E-04  3.108311E-11  0.000000E+00    2 
 2.500000E+00  2.500000E-03  5.000000E-01  2.434605E-04  2.996090E-11  0.000000E+00    2 
 2.700000E+00  2.500000E-03  5.000000E-01  2.434594E-04  2.884916E-11  0.000000E+00    2 
 2.900000E+00  2.500000E-03  5.000000E-01  2.434583E-04  2.774469E-11  0.000000E+00    2 
 3.100000E+00  2.500000E-03  5.000000E-01  2.434572E-04  2.664524E-11  0.000000E+00    2 
 3.300000E+00  2.500000E-03  5.000000E-01  2.434562E-04  2.554913E-11  0.000000E+00    2 
 3.500000E+00  2.500000E-03  5.000000E-01  2.434552E-04  2.445516E-11  0.000000E+00    2 
 3.700000E+00  2.500000E-03  5.000000E-01  2.434543E-04  2.336233E-11  0.000000E+00    2 
 3.900000E+00  2.500000E-03  5.000000E-01  2.434534E-04  2.226985E-11  0.000000E+00    2 
 4.500000E+00  2.500000E-03  5.000000E-01  2.434511E-04  1.899102E-11  0.000000E+00    2 
 5.500000E+00  2.500000E-03  5.000000E-01  2.434480E-04  1.345090E-11  0.000000E+00    2 
 6.500000E+00  2.500000E-03  5.000000E-01  2.434460E-04  7.451668E-12  0.000000E+00    2 
 7.500000E+00  2.500000E-03  5.000000E-01  2.434456E-04 -2.502226E-12  0.000000E+00    2 
 5.000000E-03  7.500000E-03  5.000000E-01  7.968605E-12  7.317128E-11  0.000000E+00    1 
 1.500000E-02  7.500000E-03  5.000000E-01  8.544919E-12  6.677844E-11  0.000000E+00    1 
 2.500000E-02  7.500000E-03  5.000000E-01  9.281917E-12  6.349997E-11  0.000000E+00    1 
 3.500000E-02  7.500000E-03  5.000000E-01  9.515220E-12  6.134320E-11  0.000000E+00    1 
 4.500000E-02  7.500000E-03  5.000000E-01  9.629713E-12  5.973874E-11  0.000000E+00    1 
 5.500000E-02  7.500000E-03  5.000000E-01  9.699000E-12  5.846116E-11  0.000000E+00    1 
 6.500000E-02  7.500000E-03  5.000000E-01  9.745797E-12  5.739968E-11  0.000000E+00    1 
 7.500000E-02  7.500000E-03  5.000000E-01  9.779633E-12  5.649174E-11  0.000000E+00    1 
 8.500000E-02  7.500000E-03  5.000000E-01  9.805285E-12  5.569860E-11  0.000000E+00    1 
 9.500000E-02  7.500000E-03  5.000000E-01  9.825439E-12  5.499457E-11  0.000000E+00    1 
 1.100000E-01  7.500000E-03  5.000000E-01  9.847470E-12  5.404552E-11  0.000000E+00    1 
 1.300000E-01  7.500000E-03  5.000000E-01  9.869888E-12  5.298876E-11  0.000000E+00    1 
 1.500000E-01  7.500000E-03  5.000000E-01  9.886219E-12  5.208117E-11  0.000000E+00    1 
 1.700000E-01  7.500000E-03  5.000000E-01  9.898636E-12  5.128530E-11  0.000000E+00    1 
 1.900000E-01  7.500000E-03  5.000000E-01  9.908394E-12  5.057620E-11  0.000000E+00    1 
 2.100000E-01  7.500000E-03  5.000000E-01  9.916267E-12  4.993640E-11  0.000000E+00    1 
 2.300000E-01  7.500000E-03  5.000000E-01  9.922754E-12  4.935327E-11  0.000000E+00    1 
 2.500000E-01  7.500000E-03  5.000000E-01  9.928195E-12  4.881732E-11  0.000000E+00    1 
 2.700000E-01  7.500000E-03  5.000000E-01  9.932824E-12  4.832129E-11  0.000000E+00    1 
 2.900000E-01  7.500000E-03  5.000000E-01  9.936814E-12  4.785950E-11  0.000000E+00    1 
 3.250000E-01  7.500000E-03  5.000000E-01  9.942296E-12  4.710333E-11  0.000000E+00    1 
 3.750000E-01  7.500000E-03  5.000000E-01  9.948639E-12  4.616856E-11  0.000000E+00    1 
 4.250000E-01  7.500000E-03  5.000000E-01  9.953452E-12  4.534274E-11  0.000000E+00    1 
 4.750000E-01  7.500000E-03  5.000000E-01  9.957214E-12  4.460120E-11  0.000000E+00    1 
 5.250000E-01  7.500000E-03  5.000000E-01  9.960222E-12  4.392653E-11  0.000000E+00    1 
 5.750000E-01  7.500000E-03  5.000000E-01  9.962673E-12  4.330601E-11  0.000000E+00    1 
 6.250000E-01  7.500000E-03  5.000000E-01  9.964701E-12  4.273007E-11  0.000000E+00    1 
 6.750000E-01  7.500000E-03  5.000000E-01  9.966400E-12  4.219135E-11  0.000000E+00    1 
 7.250000E-01  7.500000E-03  5.000000E-01  9.967838E-12  4.168405E-11  0.000000E+00    1 
 7.750000E-01  7.500000E-03  5.000000E-01  9.969067E-12  4.120355E-11  0.000000E+00    1 
 8.250000E-01  7.500000E-03  5.000000E-01  9.970126E-12  4.074609E-11  0.000000E+00    1 
 8.750000E-01  7.500000E-03  5.000000E-01  9.971043E-12  4.030858E-11  0.000000E+00    1 
 9.250000E-01  7.500000E-03  5.000000E-01  9.971843E-12  3.988847E-11  0.000000E+00    1 
 9.750000E-01  7.500000E-03  5.000000E-01  9.972544E-12  3.948361E-11  0.000000E+00    1 
 1.050000E+00  7.500000E-03  5.000000E-01  9.973412E-12  3.889646E-11  0.000000E+00    1 
 1.150000E+00  7.500000E-03  5.000000E-01  9.974377E-12  3.815806E-11  0.000000E+00    1 
 1.250000E+00  7.500000E-03  5.000000E-01  9.975141E-12  3.745492E-11  0.000000E+00    1 
 1.350000E+00  7.500000E-03  5.000000E-01  9.975750E-12  3.678005E-11  0.000000E+00    1 
 1.450000E+00  7.500000E-03  5.000000E-01  9.976239E-12  3.612805E-11  0.000000E+00    1 
 1.550000E+00  7.500000E-03  5.000000E-01  9.976634E-12  3.549467E-11  0.000000E+00    1 
 1.650000E+00  7.500000E-03  5.000000E-01  9.976953E-12  3.487655E-11  0.000000E+00    1 
 1.750000E+00  7.500000E-03  5.000000E-01  9.977212E-12  3.427099E-11  0.000000E+00    1 
 1.850000E+00  7.500000E-03  5.000000E-01  9.977422E-12  3.367582E-11  0.000000E+00    1 
 1.950000E+00  7.500000E-03  5.000000E-01  9.977593E-12  3.308927E-11  0.000000E+00    1 
 2.100000E+00  7.500000E-03  5.000000E-01  9.977778E-12  3.222019E-11  0.000000E+00    1 
 2.300000E+00  7.500000E-03  5.000000E-01  9.977955E-12  3.108297E-11  0.000000E+00    1 
 2.500000E+00  7.500000E-03  5.000000E-01  9.978065E-12  2.996076E-11  0.000000E+00    1 
 2.700000E+00  7.500000E-03  5.000000E-01  9.978129E-12  2.884902E-11  0.000000E+00    1 
 2.900000E+00  7.500000E-03  5.000000E-01  9.978160E-12  2.774456E-11  0.000000E+00    1 
 3.100000E+00  7.500000E-03  5.000000E-01  9.978169E-12  2.664511E-11  0.000000E+00    1 
 3.300000E+00  7.500000E-03  5.000000E-01  9.978161E-12  2.554901E-11  0.000000E+00    1 
 3.500000E+00  7.500000E-03  5.000000E-01  9.978141E-12  2.445504E-11  0.000000E+00    1 
 3.700000E+00  7.500000E-03  5.000000E-01  9.978112E-12  2.336222E-11  0.000000E+00    1 
 3.900000E+00  7.500000E-03  5.000000E-01  9.978075E-12  2.226974E-11  0.000000E+00    1 
 4.500000E+00  7.500000E-03  5.000000E-01  9.977885E-12  1.899093E-11  0.000000E+00    1 
 5.500000E+00  7.500000E-03  5.000000E-01  9.977088E-12  1.345084E-11  0.000000E+00    1 
 6.500000E+00  7.500000E-03  5.000000E-01  9.971490E-12  7.451649E-12  0.000000E+00    1 
 7.500000E+00  7.500000E-03  5.000000E-01  9.966518E-12 -2.477339E-12  0.000000E+00    1 
 5.000000E-03  1.250000E-02  5.000000E-01  5.624186E-12  6.977238E-11  0.000000E+00    1 
 1.500000E-02  1.250000E-02  5.000000E-01  6.605043E-12  6.599916E-11  0.000000E+00    1 
 2.500000E-02  1.250000E-02  5.000000E-01  7.986068E-12  6.321884E-11  0.000000E+00    1 
 3.500000E-02  1.250000E-02  5.000000E-01  8.589764E-12  6.120442E-11  0.000000E+00    1 
 4.500000E-02  1.250000E-02  5.000000E-01  8.914854E-12  5.965632E-11  0.000000E+00    1 
 5.500000E-02  1.250000E-02  5.000000E-01  9.117046E-12  5.840644E-11  0.000000E+00    1 
 6.500000E-02  1.250000E-02  5.000000E-01  9.255064E-12  5.736059E-11  0.000000E+00    1 
 7.500000E-02  1.250000E-02  5.000000E-01  9.355385E-12  5.646235E-11  0.000000E+00    1 
 8.500000E-02  1.250000E-02  5.000000E-01  9.431679E-12  5.567561E-11  0.000000E+00    1 
 9.500000E-02  1.250000E-02  5.000000E-01  9.491740E-12  5.497604E-11  0.000000E+00    1 
 1.100000E-01  1.250000E-02  5.000000E-01  9.557517E-12  5.403178E-11  0.000000E+00    1 
 1.300000E-01  1.250000E-02  5.000000E-01  9.624534E-12  5.297874E-11  0.000000E+00    1 
 1.500000E-01  1.250000E-02  5.000000E-01  9.673409E-12  5.207348E-11  0.000000E+00    1 
 1.700000E-01  1.250000E-02  5.000000E-01  9.710598E-12  5.127918E-11  0.000000E+00    1 
 1.900000E-01  1.250000E-02  5.000000E-01  9.739841E-12  5.057117E-11  0.000000E+00    1 
 2.100000E-01  1.250000E-02  5.000000E-01  9.763444E-12  4.993216E-11  0.000000E+00    1 
 2.300000E-01  1.250000E-02  5.000000E-01  9.782901E-12  4.934962E-11  0.000000E+00    1 
 2.500000E-01  1.250000E-02  5.000000E-01  9.799223E-12  4.881412E-11  0.000000E+00    1 
 2.700000E-01  1.250000E-02  5.000000E-01  9.813117E-12  4.831845E-11  0.000000E+00    1 
 2.900000E-01  1.250000E-02  5.000000E-01  9.825094E-12  4.785695E-11  0.000000E+00    1 
 3.250000E-01  1.250000E-02  5.000000E-01  9.841557E-12  4.710118E-11  0.000000E+00    1 
 3.750000E-01  1.250000E-02  5.000000E-01  9.860617E-12  4.616678E-11  0.000000E+00    1 
 4.250000E-01  1.250000E-02  5.000000E-01  9.875089E-12  4.534120E-11  0.000000E+00    1 
 4.750000E-01  1.250000E-02  5.000000E-01  9.886407E-12  4.459983E-11  0.000000E+00    1 
 5.250000E-01  1.250000E-02  5.000000E-01  9.895465E-12  4.392529E-11  0.000000E+00    1 
 5.750000E-01  1.250000E-02  5.000000E-01  9.902852E-12  4.330487E-11  0.000000E+00    1 
 6.250000E-01  1.250000E-02  5.000000E-01  9.908969E-12  4.272901E-11  0.000000E+00    1 
 6.750000E-01  1.250000E-02  5.000000E-01  9.914100E-12  4.219035E-11  0.000000E+00    1 
 7.250000E-01  1.250000E-02  5.000000E-01  9.918449E-12  4.168310E-11  0.000000E+00    1 
 7.750000E-01  1.250000E-02  5.000000E-01  9.922170E-12  4.120263E-11  0.000000E+00    1 
 8.250000E-01  1.250000E-02  5.000000E-01  9.925378E-12  4.074520E-11  0.000000E+00    1 
 8.750000E-01  1.250000E-02  5.000000E-01  9.928163E-12  4.030773E-11  0.000000E+00    1 
 9.250000E-01  1.250000E-02  5.000000E-01  9.930595E-12  3.988764E-11  0.000000E+00    1 
 9.750000E-01  1.250000E-02  5.000000E-01  9.932730E-12  3.948280E-11  0.000000E+00    1 
 1.050000E+00  1.250000E-02  5.000000E-01  9.935381E-12  3.889568E-11  0.000000E+00    1 
 1.150000E+00  1.250000E-02  5.000000E-01  9.938339E-12  3.815731E-11  0.000000E+00    1 
 1.250000E+00  1.250000E-02  5.000000E-01  9.940691E-12  3.745420E-11  0.000000E+00    1 
 1.350000E+00  1.250000E-02  5.000000E-01  9.942579E-12  3.677935E-11  0.000000E+00    1 
 1.450000E+00  1.250000E-02  5.000000E-01  9.944105E-12  3.612736E-11  0.000000E+00    1 
 1.550000E+00  1.250000E-02  5.000000E-01  9.945347E-12  3.549399E-11  0.000000E+00    1 
 1.650000E+00  1.250000E-02  5.000000E-01  9.946362E-12  3.487589E-11  0.000000E+00    1 
 1.750000E+00  1.250000E-02  5.000000E-01  9.947194E-12  3.427034E-11  0.000000E+00    1 
 1.850000E+00  1.250000E-02  5.000000E-01  9.947880E-12  3.367519E-11  0.000000E+00    1 
 1.950000E+00  1.250000E-02  5.000000E-01  9.948445E-12  3.308865E-11  0.000000E+00    1 
 2.100000E+00  1.250000E-02  5.000000E-01  9.949078E-12  3.221959E-11  0.000000E+00    1 
 2.300000E+00  1.250000E-02  5.000000E-01  9.949712E-12  3.108238E-11  0.000000E+00    1 
 2.500000E+00  1.250000E-02  5.000000E-01  9.950141E-12  2.996019E-11  0.000000E+00    1 
 2.700000E+00  1.250000E-02  5.000000E-01  9.950427E-12  2.884848E-11  0.000000E+00    1 
 2.900000E+00  1.250000E-02  5.000000E-01  9.950612E-12  2.774404E-11  0.000000E+00    1 
 3.100000E+00  1.250000E-02  5.000000E-01  9.950725E-12  2.664461E-11  0.000000E+00    1 
 3.300000E+00  1.250000E-02  5.000000E-01  9.950785E-12  2.554853E-11  0.000000E+00    1 
 3.500000E+00  1.250000E-02  5.000000E-01  9.950807E-12  2.445458E-11  0.000000E+00    1 
 3.700000E+00  1.250000E-02  5.000000E-01  9.950796E-12  2.336178E-11  0.000000E+00    1 
 3.900000E+00  1.250000E-02  5.000000E-01  9.950758E-12  2.226932E-11  0.000000E+00    1 
 4.500000E+00  1.250000E-02  5.000000E-01  9.950373E-12  1.899057E-11  0.000000E+00    1 
 5.500000E+00  1.250000E-02  5.000000E-01  9.948240E-12  1.345059E-11  0.000000E+00    1 
 6.500000E+00  1.250000E-02  5.000000E-01  9.931732E-12  7.451573E-12  0.000000E+00    1 
 7.500000E+00  1.250000E-02  5.000000E-01  9.916998E-12 -2.427745E-12  0.000000E+00    1 
 5.000000E-03  1.750000E-02  5.000000E-01  4.195385E-12  6.731608E-11  0.000000E+00    1 
 1.500000E-02  1.750000E-02  5.000000E-01  5.268149E-12  6.497094E-11  0.000000E+00    1 
 2.500000E-02  1.750000E-02  5.000000E-01  6.884550E-12  6.274553E-11  0.000000E+00    1 
 3.500000E-02  1.750000E-02  5.000000E-01  7.733961E-12  6.094837E-11  0.000000E+00    1 
 4.500000E-02  1.750000E-02  5.000000E-01  8.230719E-12  5.949864E-11  0.000000E+00    1 
 5.500000E-02  1.750000E-02  5.000000E-01  8.551136E-12  5.830000E-11  0.000000E+00    1 
 6.500000E-02  1.750000E-02  5.000000E-01  8.773754E-12  5.728390E-11  0.000000E+00    1 
 7.500000E-02  1.750000E-02  5.000000E-01  8.937144E-12  5.640437E-11  0.000000E+00    1 
 8.500000E-02  1.750000E-02  5.000000E-01  9.062133E-12  5.563014E-11  0.000000E+00    1 
 9.500000E-02  1.750000E-02  5.000000E-01  9.160900E-12  5.493930E-11  0.000000E+00    1 
 1.100000E-01  1.750000E-02  5.000000E-01  9.269455E-12  5.400446E-11  0.000000E+00    1 
 1.300000E-01  1.750000E-02  5.000000E-01  9.380313E-12  5.295878E-11  0.000000E+00    1 
 1.500000E-01  1.750000E-02  5.000000E-01  9.461329E-12  5.205816E-11  0.000000E+00    1 
 1.700000E-01  1.750000E-02  5.000000E-01  9.523057E-12  5.126696E-11  0.000000E+00    1 
 1.900000E-01  1.750000E-02  5.000000E-01  9.571641E-12  5.056112E-11  0.000000E+00    1 
 2.100000E-01  1.750000E-02  5.000000E-01  9.610880E-12  4.992369E-11  0.000000E+00    1 
 2.300000E-01  1.750000E-02  5.000000E-01  9.643244E-12  4.934233E-11  0.000000E+00    1 
 2.500000E-01  1.750000E-02  5.000000E-01  9.670404E-12  4.880774E-11  0.000000E+00    1 
 2.700000E-01  1.750000E-02  5.000000E-01  9.693530E-12  4.831278E-11  0.000000E+00    1 
 2.900000E-01  1.750000E-02  5.000000E-01  9.713470E-12  4.785184E-11  0.000000E+00    1 
 3.250000E-01  1.750000E-02  5.000000E-01  9.740889E-12  4.709687E-11  0.000000E+00    1 
 3.750000E-01  1.750000E-02  5.000000E-01  9.772642E-12  4.616320E-11  0.000000E+00    1 
 4.250000E-01  1.750000E-02  5.000000E-01  9.796758E-12  4.533813E-11  0.000000E+00    1 
 4.750000E-01  1.750000E-02  5.000000E-01  9.815623E-12  4.459711E-11  0.000000E+00    1 
 5.250000E-01  1.750000E-02  5.000000E-01  9.830725E-12  4.392282E-11  0.000000E+00    1 
 5.750000E-01  1.750000E-02  5.000000E-01  9.843045E-12  4.330259E-11  0.000000E+00    1 
 6.250000E-01  1.750000E-02  5.000000E-01  9.853248E-12  4.272688E-11  0.000000E+00    1 
 6.750000E-01  1.750000E-02  5.000000E-01  9.861808E-12  4.218834E-11  0.000000E+00    1 
 7.250000E-01  1.750000E-02  5.000000E-01  9.869067E-12  4.168119E-11  0.000000E+00    1 
 7.750000E-01  1.750000E-02  5.000000E-01  9.875278E-12  4.120080E-11  0.000000E+00    1 
 8.250000E-01  1.750000E-02  5.000000E-01  9.880635E-12  4.074344E-11  0.000000E+00    1 
 8.750000E-01  1.750000E-02  5.000000E-01  9.885287E-12  4.030602E-11  0.000000E+00    1 
 9.250000E-01  1.750000E-02  5.000000E-01  9.889350E-12  3.988598E-11  0.000000E+00    1 
 9.750000E-01  1.750000E-02  5.000000E-01  9.892919E-12  3.948118E-11  0.000000E+00    1 
 1.050000E+00  1.750000E-02  5.000000E-01  9.897352E-12  3.889412E-11  0.000000E+00    1 
 1.150000E+00  1.750000E-02  5.000000E-01  9.902303E-12  3.815581E-11  0.000000E+00    1 
 1.250000E+00  1.750000E-02  5.000000E-01  9.906243E-12  3.745274E-11  0.000000E+00    1 
 1.350000E+00  1.750000E-02  5.000000E-01  9.909408E-12  3.677793E-11  0.000000E+00    1 
 1.450000E+00  1.750000E-02  5.000000E-01  9.911972E-12  3.612598E-11  0.000000E+00    1 
 1.550000E+00  1.750000E-02  5.000000E-01  9.914060E-12  3.549264E-11  0.000000E+00    1 
 1.650000E+00  1.750000E-02  5.000000E-01  9.915771E-12  3.487457E-11  0.000000E+00    1 
 1.750000E+00  1.750000E-02  5.000000E-01  9.917177E-12  3.426905E-11  0.000000E+00    1 
 1.850000E+00  1.750000E-02  5.000000E-01  9.918338E-12  3.367392E-11  0.000000E+00    1 
 1.950000E+00  1.750000E-02  5.000000E-01  9.919297E-12  3.308740E-11  0.000000E+00    1 
 2.100000E+00  1.750000E-02  5.000000E-01  9.920379E-12  3.221838E-11  0.000000E+00    1 
 2.300000E+00  1.750000E-02  5.000000E-01  9.921470E-12  3.108122E-11  0.000000E+00    1 
 2.500000E+00  1.750000E-02  5.000000E-01  9.922218E-12  2.995907E-11  0.000000E+00    1 
 2.700000E+00  1.750000E-02  5.000000E-01  9.922725E-12  2.884740E-11  0.000000E+00    1 
 2.900000E+00  1.750000E-02  5.000000E-01  9.923064E-12  2.774301E-11  0.000000E+00    1 
 3.100000E+00  1.750000E-02  5.000000E-01  9.923281E-12  2.664361E-11  0.000000E+00    1 
 3.300000E+00  1.750000E-02  5.000000E-01  9.923410E-12  2.554758E-11  0.000000E+00    1 
 3.500000E+00  1.750000E-02  5.000000E-01  9.923473E-12  2.445367E-11  0.000000E+00    1 
 3.700000E+00  1.750000E-02  5.000000E-01  9.923481E-12  2.336091E-11  0.000000E+00    1 
 3.900000E+00  1.750000E-02  5.000000E-01  9.923441E-12  2.226849E-11  0.000000E+00    1 
 4.500000E+00  1.750000E-02  5.000000E-01  9.922862E-12  1.898986E-11  0.000000E+00    1 
 5.500000E+00  1.750000E-02  5.000000E-01  9.919393E-12  1.345009E-11  0.000000E+00    1 
 6.500000E+00  1.750000E-02  5.000000E-01  9.892098E-12  7.451422E-12  0.000000E+00    1 
 7.500000E+00  1.750000E-02  5.000000E-01  9.867725E-12 -2.378514E-12  0.000000E+00    1 
 5.000000E-03  2.250000E-02  5.000000E-01  3.279048E-12  6.544536E-11  0.000000E+00    1 
 1.500000E-02  2.250000E-02  5.000000E-01  4.319769E-12  6.391209E-11  0.000000E+00    1 
 2.500000E-02  2.250000E-02  5.000000E-01  5.974780E-12  6.216446E-11  0.000000E+00    1 
 3.500000E-02  2.250000E-02  5.000000E-01  6.966320E-12  6.060475E-11  0.000000E+00    1 
 4.500000E-02  2.250000E-02  5.000000E-01  7.590670E-12  5.927749E-11  0.000000E+00    1 
 5.500000E-02  2.250000E-02  5.000000E-01  8.009675E-12  5.814722E-11  0.000000E+00    1 
 6.500000E-02  2.250000E-02  5.000000E-01  8.307251E-12  5.717236E-11  0.000000E+00    1 
 7.500000E-02  2.250000E-02  5.000000E-01  8.528504E-12  5.631937E-11  0.000000E+00    1 
 8.500000E-02  2.250000E-02  5.000000E-01  8.699141E-12  5.556311E-11  0.000000E+00    1 
 9.500000E-02  2.250000E-02  5.000000E-01  8.834709E-12  5.488494E-11  0.000000E+00    1 
 1.100000E-01  2.250000E-02  5.000000E-01  8.984486E-12  5.396390E-11  0.000000E+00    1 
 1.300000E-01  2.250000E-02  5.000000E-01  9.137958E-12  5.292905E-11  0.000000E+00    1 
 1.500000E-01  2.250000E-02  5.000000E-01  9.250455E-12  5.203530E-11  0.000000E+00    1 
 1.700000E-01  2.250000E-02  5.000000E-01  9.336338E-12  5.124871E-11  0.000000E+00    1 
 1.900000E-01  2.250000E-02  5.000000E-01  9.404024E-12  5.054610E-11  0.000000E+00    1 
 2.100000E-01  2.250000E-02  5.000000E-01  9.458745E-12  4.991102E-11  0.000000E+00    1 
 2.300000E-01  2.250000E-02  5.000000E-01  9.503912E-12  4.933141E-11  0.000000E+00    1 
 2.500000E-01  2.250000E-02  5.000000E-01  9.541836E-12  4.879818E-11  0.000000E+00    1 
 2.700000E-01  2.250000E-02  5.000000E-01  9.574143E-12  4.830428E-11  0.000000E+00    1 
 2.900000E-01  2.250000E-02  5.000000E-01  9.602006E-12  4.784419E-11  0.000000E+00    1 
 3.250000E-01  2.250000E-02  5.000000E-01  9.640338E-12  4.709042E-11  0.000000E+00    1 
 3.750000E-01  2.250000E-02  5.000000E-01  9.684743E-12  4.615785E-11  0.000000E+00    1 
 4.250000E-01  2.250000E-02  5.000000E-01  9.718480E-12  4.533351E-11  0.000000E+00    1 
 4.750000E-01  2.250000E-02  5.000000E-01  9.744876E-12  4.459302E-11  0.000000E+00    1 
 5.250000E-01  2.250000E-02  5.000000E-01  9.766014E-12  4.391912E-11  0.000000E+00    1 
 5.750000E-01  2.250000E-02  5.000000E-01  9.783259E-12  4.329918E-11  0.000000E+00    1 
 6.250000E-01  2.250000E-02  5.000000E-01  9.797544E-12  4.272370E-11  0.000000E+00    1 
 6.750000E-01  2.250000E-02  5.000000E-01  9.809530E-12  4.218533E-11  0.000000E+00    1 
 7.250000E-01  2.250000E-02  5.000000E-01  9.819695E-12  4.167833E-11  0.000000E+00    1 
 7.750000E-01  2.250000E-02  5.000000E-01  9.828395E-12  4.119806E-11  0.000000E+00    1 
 8.250000E-01  2.250000E-02  5.000000E-01  9.835899E-12  4.074080E-11  0.000000E+00    1 
 8.750000E-01  2.250000E-02  5.000000E-01  9.842417E-12  4.030346E-11  0.000000E+00    1 
 9.250000E-01  2.250000E-02  5.000000E-01  9.848111E-12  3.988349E-11  0.000000E+00    1 
 9.750000E-01  2.250000E-02  5.000000E-01  9.853113E-12  3.947876E-11  0.000000E+00    1 
 1.050000E+00  2.250000E-02  5.000000E-01  9.859328E-12  3.889178E-11  0.000000E+00    1 
 1.150000E+00  2.250000E-02  5.000000E-01  9.866270E-12  3.815355E-11  0.000000E+00    1 
 1.250000E+00  2.250000E-02  5.000000E-01  9.871797E-12  3.745056E-11  0.000000E+00    1 
 1.350000E+00  2.250000E-02  5.000000E-01  9.876240E-12  3.677581E-11  0.000000E+00    1 
 1.450000E+00  2.250000E-02  5.000000E-01  9.879841E-12  3.612391E-11  0.000000E+00    1 
 1.550000E+00  2.250000E-02  5.000000E-01  9.882776E-12  3.549062E-11  0.000000E+00    1 
 1.650000E+00  2.250000E-02  5.000000E-01  9.885182E-12  3.487259E-11  0.000000E+00    1 
 1.750000E+00  2.250000E-02  5.000000E-01  9.887162E-12  3.426712E-11  0.000000E+00    1 
 1.850000E+00  2.250000E-02  5.000000E-01  9.888797E-12  3.367202E-11  0.000000E+00    1 
 1.950000E+00  2.250000E-02  5.000000E-01  9.890151E-12  3.308554E-11  0.000000E+00    1 
 2.100000E+00  2.250000E-02  5.000000E-01  9.891681E-12  3.221657E-11  0.000000E+00    1 
 2.300000E+00  2.250000E-02  5.000000E-01  9.893230E-12  3.107948E-11  0.000000E+00    1 
 2.500000E+00  2.250000E-02  5.000000E-01  9.894296E-12  2.995739E-11  0.000000E+00    1 
 2.700000E+00  2.250000E-02  5.000000E-01  9.895025E-12  2.884578E-11  0.000000E+00    1 
 2.900000E+00  2.250000E-02  5.000000E-01  9.895517E-12  2.774145E-11  0.000000E+00    1 
 3.100000E+00  2.250000E-02  5.000000E-01  9.895839E-12  2.664212E-11  0.000000E+00    1 
 3.300000E+00  2.250000E-02  5.000000E-01  9.896037E-12  2.554615E-11  0.000000E+00    1 
 3.500000E+00  2.250000E-02  5.000000E-01  9.896140E-12  2.445230E-11  0.000000E+00    1 
 3.700000E+00  2.250000E-02  5.000000E-01  9.896167E-12  2.335960E-11  0.000000E+00    1 
 3.900000E+00  2.250000E-02  5.000000E-01  9.896125E-12  2.226724E-11  0.000000E+00    1 
 4.500000E+00  2.250000E-02  5.000000E-01  9.895352E-12  1.898880E-11  0.000000E+00    1 
 5.500000E+00  2.250000E-02  5.000000E-01  9.890548E-12  1.344935E-11  0.000000E+00    1 
 6.500000E+00  2.250000E-02  5.000000E-01  9.852589E-12  7.451196E-12  0.000000E+00    1 
 7.500000E+00  2.250000E-02  5.000000E-01  9.818698E-12 -2.329642E-12  0.000000E+00    1 
 5.000000E-03  2.750000E-02  5.000000E-01  2.662113E-12  6.395726E-11  0.000000E+00    1 
 1.500000E-02  2.750000E-02  5.000000E-01  3.627698E-12  6.290613E-11  0.000000E+00    1 
 2.500000E-02  2.750000E-02  5.000000E-01  5.230877E-12  6.153571E-11  0.000000E+00    1 
 3.500000E-02  2.750000E-02  5.000000E-01  6.290476E-12  6.020231E-11  0.000000E+00    1 
 4.500000E-02  2.750000E-02  5.000000E-01  7.001957E-12  5.900639E-11  0.000000E+00    1 
 5.500000E-02  2.750000E-02  5.000000E-01  7.498572E-12  5.795489E-11  0.000000E+00    1 
 6.500000E-02  2.750000E-02  5.000000E-01  7.859829E-12  5.702966E-11  0.000000E+00    1 
 7.500000E-02  2.750000E-02  5.000000E-01  8.132518E-12  5.620949E-11  0.000000E+00    1 
 8.500000E-02  2.750000E-02  5.000000E-01  8.344917E-12  5.547586E-11  0.000000E+00    1 
 9.500000E-02  2.750000E-02  5.000000E-01  8.514800E-12  5.481385E-11  0.000000E+00    1 
 1.100000E-01  2.750000E-02  5.000000E-01  8.703729E-12  5.391056E-11  0.000000E+00    1 
 1.300000E-01  2.750000E-02  5.000000E-01  8.898164E-12  5.288980E-11  0.000000E+00    1 
 1.500000E-01  2.750000E-02  5.000000E-01  9.041244E-12  5.200504E-11  0.000000E+00    1 
 1.700000E-01  2.750000E-02  5.000000E-01  9.150756E-12  5.122450E-11  0.000000E+00    1 
 1.900000E-01  2.750000E-02  5.000000E-01  9.237218E-12  5.052615E-11  0.000000E+00    1 
 2.100000E-01  2.750000E-02  5.000000E-01  9.307209E-12  4.989418E-11  0.000000E+00    1 
 2.300000E-01  2.750000E-02  5.000000E-01  9.365033E-12  4.931690E-11  0.000000E+00    1 
 2.500000E-01  2.750000E-02  5.000000E-01  9.413620E-12  4.878545E-11  0.000000E+00    1 
 2.700000E-01  2.750000E-02  5.000000E-01  9.455033E-12  4.829297E-11  0.000000E+00    1 
 2.900000E-01  2.750000E-02  5.000000E-01  9.490766E-12  4.783400E-11  0.000000E+00    1 
 3.250000E-01  2.750000E-02  5.000000E-01  9.539951E-12  4.708182E-11  0.000000E+00    1 
 3.750000E-01  2.750000E-02  5.000000E-01  9.596951E-12  4.615071E-11  0.000000E+00    1 
 4.250000E-01  2.750000E-02  5.000000E-01  9.640275E-12  4.532736E-11  0.000000E+00    1 
 4.750000E-01  2.750000E-02  5.000000E-01  9.674183E-12  4.458756E-11  0.000000E+00    1 
 5.250000E-01  2.750000E-02  5.000000E-01  9.701342E-12  4.391418E-11  0.000000E+00    1 
 5.750000E-01  2.750000E-02  5.000000E-01  9.723503E-12  4.329463E-11  0.000000E+00    1 
 6.250000E-01  2.750000E-02  5.000000E-01  9.741864E-12  4.271945E-11  0.000000E+00    1 
 6.750000E-01  2.750000E-02  5.000000E-01  9.757271E-12  4.218133E-11  0.000000E+00    1 
 7.250000E-01  2.750000E-02  5.000000E-01  9.770339E-12  4.167451E-11  0.000000E+00    1 
 7.750000E-01  2.750000E-02  5.000000E-01  9.781525E-12  4.119440E-11  0.000000E+00    1 
 8.250000E-01  2.750000E-02  5.000000E-01  9.791175E-12  4.073727E-11  0.000000E+00    1 
 8.750000E-01  2.750000E-02  5.000000E-01  9.799556E-12  4.030005E-11  0.000000E+00    1 
 9.250000E-01  2.750000E-02  5.000000E-01  9.806880E-12  3.988018E-11  0.000000E+00    1 
 9.750000E-01  2.750000E-02  5.000000E-01  9.813313E-12  3.947552E-11  0.000000E+00    1 
 1.050000E+00  2.750000E-02  5.000000E-01  9.821309E-12  3.888865E-11  0.000000E+00    1 
 1.150000E+00  2.750000E-02  5.000000E-01  9.830242E-12  3.815054E-11  0.000000E+00    1 
 1.250000E+00  2.750000E-02  5.000000E-01  9.837356E-12  3.744764E-11  0.000000E+00    1 
 1.350000E+00  2.750000E-02  5.000000E-01  9.843076E-12  3.677298E-11  0.000000E+00    1 
 1.450000E+00  2.750000E-02  5.000000E-01  9.847712E-12  3.612115E-11  0.000000E+00    1 
 1.550000E+00  2.750000E-02  5.000000E-01  9.851495E-12  3.548793E-11  0.000000E+00    1 
 1.650000E+00  2.750000E-02  5.000000E-01  9.854596E-12  3.486995E-11  0.000000E+00    1 