TITLE = "   1.0000E+02 [d]"
VARIABLES="X [m]","Y [m]","Z [m]","qlx [m/d]","qly [m/d]","qlz [m/d]","Material_ID"
ZONE T= "  1.00000E+02", I=   58, J=   38, K=    1, DATAPACKING=POINT
 5.000000E-03  2.500000E-03  5.000000E-01  2.435144E-04  1.358887E-10  0.000000E+00    2 
 1.500000E-02  2.500000E-03  5.000000E-01  2.435142E-04  1.277898E-10  0.000000E+00    2 
 2.500000E-02  2.500000E-03  5.000000E-01  2.435139E-04  1.243013E-10  0.000000E+00    2 
 3.500000E-02  2.500000E-03  5.000000E-01  2.435137E-04  1.220975E-10  0.000000E+00    2 
 4.500000E-02  2.500000E-03  5.000000E-01  2.435134E-04  1.204739E-10  0.000000E+00    2 
 5.500000E-02  2.500000E-03  5.000000E-01  2.435132E-04  1.191846E-10  0.000000E+00    2 
 6.500000E-02  2.500000E-03  5.000000E-01  2.435130E-04  1.181137E-10  0.000000E+00    2 
 7.500000E-02  2.500000E-03  5.000000E-01  2.435127E-04  1.171970E-10  0.000000E+00    2 
 8.500000E-02  2.500000E-03  5.000000E-01  2.435125E-04  1.163951E-10  0.000000E+00    2 
 9.500000E-02  2.500000E-03  5.000000E-01  2.435123E-04  1.156820E-10  0.000000E+00    2 
 1.100000E-01  2.500000E-03  5.000000E-01  2.435119E-04  1.147185E-10  0.000000E+00    2 
 1.300000E-01  2.500000E-03  5.000000E-01  2.435115E-04  1.136397E-10  0.000000E+00    2 
 1.500000E-01  2.500000E-03  5.000000E-01  2.435110E-04  1.127070E-10  0.000000E+00    2 
 1.700000E-01  2.500000E-03  5.000000E-01  2.435106E-04  1.118828E-10  0.000000E+00    2 
 1.900000E-01  2.500000E-03  5.000000E-01  2.435101E-04  1.111422E-10  0.000000E+00    2 
 2.100000E-01  2.500000E-03  5.000000E-01  2.435097E-04  1.104676E-10  0.000000E+00    2 
 2.300000E-01  2.500000E-03  5.000000E-01  2.435093E-04  1.098464E-10  0.000000E+00    2 
 2.500000E-01  2.500000E-03  5.000000E-01  2.435088E-04  1.092691E-10  0.000000E+00    2 
 2.700000E-01  2.500000E-03  5.000000E-01  2.435084E-04  1.087286E-10  0.000000E+00    2 
 2.900000E-01  2.500000E-03  5.000000E-01  2.435080E-04  1.082191E-10  0.000000E+00    2 
 3.250000E-01  2.500000E-03  5.000000E-01  2.435072E-04  1.073740E-10  0.000000E+00    2 
 3.750000E-01  2.500000E-03  5.000000E-01  2.435061E-04  1.062931E-10  0.000000E+00    2 
 4.250000E-01  2.500000E-03  5.000000E-01  2.435051E-04  1.053028E-10  0.000000E+00    2 
 4.750000E-01  2.500000E-03  5.000000E-01  2.435040E-04  1.043793E-10  0.000000E+00    2 
 5.250000E-01  2.500000E-03  5.000000E-01  2.435030E-04  1.035061E-10  0.000000E+00    2 
 5.750000E-01  2.500000E-03  5.000000E-01  2.435020E-04  1.026712E-10  0.000000E+00    2 
 6.250000E-01  2.500000E-03  5.000000E-01  2.435010E-04  1.018661E-10  0.000000E+00    2 
 6.750000E-01  2.500000E-03  5.000000E-01  2.435000E-04  1.010843E-10  0.000000E+00    2 
 7.250000E-01  2.500000E-03  5.000000E-01  2.434990E-04  1.003208E-10  0.000000E+00    2 
 7.750000E-01  2.500000E-03  5.000000E-01  2.434980E-04  9.957193E-11  0.000000E+00    2 
 8.250000E-01  2.500000E-03  5.000000E-01  2.434970E-04  9.883467E-11  0.000000E+00    2 
 8.750000E-01  2.500000E-03  5.000000E-01  2.434960E-04  9.810677E-11  0.000000E+00    2 
 9.250000E-01  2.500000E-03  5.000000E-01  2.434950E-04  9.738640E-11  0.000000E+00    2 
 9.750000E-01  2.500000E-03  5.000000E-01  2.434941E-04  9.667213E-11  0.000000E+00    2 
 1.050000E+00  2.500000E-03  5.000000E-01  2.434926E-04  9.560816E-11  0.000000E+00    2 
 1.150000E+00  2.500000E-03  5.000000E-01  2.434907E-04  9.420390E-11  0.000000E+00    2 
 1.250000E+00  2.500000E-03  5.000000E-01  2.434889E-04  9.280924E-11  0.000000E+00    2 
 1.350000E+00  2.500000E-03  5.000000E-01  2.434871E-04  9.142105E-11  0.000000E+00    2 
 1.450000E+00  2.500000E-03  5.000000E-01  2.434853E-04  9.003723E-11  0.000000E+00    2 
 1.550000E+00  2.500000E-03  5.000000E-01  2.434835E-04  8.865639E-11  0.000000E+00    2 
 1.650000E+00  2.500000E-03  5.000000E-01  2.434817E-04  8.727759E-11  0.000000E+00    2 
 1.750000E+00  2.500000E-03  5.000000E-01  2.434800E-04  8.590018E-11  0.000000E+00    2 
 1.850000E+00  2.500000E-03  5.000000E-01  2.434783E-04  8.452374E-11  0.000000E+00    2 
 1.950000E+00  2.500000E-03  5.000000E-01  2.434766E-04  8.314797E-11  0.000000E+00    2 
 2.100000E+00  2.500000E-03  5.000000E-01  2.434742E-04  8.108500E-11  0.000000E+00    2 
 2.300000E+00  2.500000E-03  5.000000E-01  2.434710E-04  7.833542E-11  0.000000E+00    2 
 2.500000E+00  2.500000E-03  5.000000E-01  2.434680E-04  7.558635E-11  0.000000E+00    2 
 2.700000E+00  2.500000E-03  5.000000E-01  2.434650E-04  7.283754E-11  0.000000E+00    2 
 2.900000E+00  2.500000E-03  5.000000E-01  2.434622E-04  7.008885E-11  0.000000E+00    2 
 3.100000E+00  2.500000E-03  5.000000E-01  2.434595E-04  6.734022E-11  0.000000E+00    2 
 3.300000E+00  2.500000E-03  5.000000E-01  2.434569E-04  6.459162E-11  0.000000E+00    2 
 3.500000E+00  2.500000E-03  5.000000E-01  2.434544E-04  6.184303E-11  0.000000E+00    2 
 3.700000E+00  2.500000E-03  5.000000E-01  2.434520E-04  5.909444E-11  0.000000E+00    2 
 3.900000E+00  2.500000E-03  5.000000E-01  2.434497E-04  5.634583E-11  0.000000E+00    2 
 4.500000E+00  2.500000E-03  5.000000E-01  2.434438E-04  4.809988E-11  0.000000E+00    2 
 5.500000E+00  2.500000E-03  5.000000E-01  2.434357E-04  3.435232E-11  0.000000E+00    2 
 6.500000E+00  2.500000E-03  5.000000E-01  2.434303E-04  2.052613E-11  0.000000E+00    2 
 7.500000E+00  2.500000E-03  5.000000E-01  2.434279E-04  4.454875E-12  0.000000E+00    2 
 5.000000E-03  7.500000E-03  5.000000E-01  7.969519E-12  1.338937E-10  0.000000E+00    1 
 1.500000E-02  7.500000E-03  5.000000E-01  8.545803E-12  1.274991E-10  0.000000E+00    1 
 2.500000E-02  7.500000E-03  5.000000E-01  9.282682E-12  1.242184E-10  0.000000E+00    1 
 3.500000E-02  7.500000E-03  5.000000E-01  9.515794E-12  1.220587E-10  0.000000E+00    1 
 4.500000E-02  7.500000E-03  5.000000E-01  9.630080E-12  1.204505E-10  0.000000E+00    1 
 5.500000E-02  7.500000E-03  5.000000E-01  9.699153E-12  1.191684E-10  0.000000E+00    1 
 6.500000E-02  7.500000E-03  5.000000E-01  9.745733E-12  1.181015E-10  0.000000E+00    1 
 7.500000E-02  7.500000E-03  5.000000E-01  9.779351E-12  1.171873E-10  0.000000E+00    1 
 8.500000E-02  7.500000E-03  5.000000E-01  9.804784E-12  1.163870E-10  0.000000E+00    1 
 9.500000E-02  7.500000E-03  5.000000E-01  9.824718E-12  1.156750E-10  0.000000E+00    1 
 1.100000E-01  7.500000E-03  5.000000E-01  9.846420E-12  1.147127E-10  0.000000E+00    1 
 1.300000E-01  7.500000E-03  5.000000E-01  9.868401E-12  1.136348E-10  0.000000E+00    1 
 1.500000E-01  7.500000E-03  5.000000E-01  9.884297E-12  1.127027E-10  0.000000E+00    1 
 1.700000E-01  7.500000E-03  5.000000E-01  9.896281E-12  1.118790E-10  0.000000E+00    1 
 1.900000E-01  7.500000E-03  5.000000E-01  9.905610E-12  1.111386E-10  0.000000E+00    1 
 2.100000E-01  7.500000E-03  5.000000E-01  9.913057E-12  1.104642E-10  0.000000E+00    1 
 2.300000E-01  7.500000E-03  5.000000E-01  9.919123E-12  1.098431E-10  0.000000E+00    1 
 2.500000E-01  7.500000E-03  5.000000E-01  9.924147E-12  1.092660E-10  0.000000E+00    1 
 2.700000E-01  7.500000E-03  5.000000E-01  9.928366E-12  1.087256E-10  0.000000E+00    1 
 2.900000E-01  7.500000E-03  5.000000E-01  9.931950E-12  1.082162E-10  0.000000E+00    1 
 3.250000E-01  7.500000E-03  5.000000E-01  9.936739E-12  1.073712E-10  0.000000E+00    1 
 3.750000E-01  7.500000E-03  5.000000E-01  9.942120E-12  1.062904E-10  0.000000E+00    1 
 4.250000E-01  7.500000E-03  5.000000E-01  9.946011E-12  1.053001E-10  0.000000E+00    1 
 4.750000E-01  7.500000E-03  5.000000E-01  9.948894E-12  1.043767E-10  0.000000E+00    1 
 5.250000E-01  7.500000E-03  5.000000E-01  9.951069E-12  1.035035E-10  0.000000E+00    1 
 5.750000E-01  7.500000E-03  5.000000E-01  9.952731E-12  1.026687E-10  0.000000E+00    1 
 6.250000E-01  7.500000E-03  5.000000E-01  9.954014E-12  1.018636E-10  0.000000E+00    1 
 6.750000E-01  7.500000E-03  5.000000E-01  9.955013E-12  1.010818E-10  0.000000E+00    1 
 7.250000E-01  7.500000E-03  5.000000E-01  9.955796E-12  1.003184E-10  0.000000E+00    1 
 7.750000E-01  7.500000E-03  5.000000E-01  9.956410E-12  9.956948E-11  0.000000E+00    1 
 8.250000E-01  7.500000E-03  5.000000E-01  9.956894E-12  9.883224E-11  0.000000E+00    1 
 8.750000E-01  7.500000E-03  5.000000E-01  9.957276E-12  9.810435E-11  0.000000E+00    1 
 9.250000E-01  7.500000E-03  5.000000E-01  9.957577E-12  9.738400E-11  0.000000E+00    1 
 9.750000E-01  7.500000E-03  5.000000E-01  9.957814E-12  9.666975E-11  0.000000E+00    1 
 1.050000E+00  7.500000E-03  5.000000E-01  9.958059E-12  9.560581E-11  0.000000E+00    1 
 1.150000E+00  7.500000E-03  5.000000E-01  9.958281E-12  9.420158E-11  0.000000E+00    1 
 1.250000E+00  7.500000E-03  5.000000E-01  9.958406E-12  9.280696E-11  0.000000E+00    1 
 1.350000E+00  7.500000E-03  5.000000E-01  9.958466E-12  9.141880E-11  0.000000E+00    1 
 1.450000E+00  7.500000E-03  5.000000E-01  9.958484E-12  9.003501E-11  0.000000E+00    1 
 1.550000E+00  7.500000E-03  5.000000E-01  9.958474E-12  8.865421E-11  0.000000E+00    1 
 1.650000E+00  7.500000E-03  5.000000E-01  9.958445E-12  8.727544E-11  0.000000E+00    1 
 1.750000E+00  7.500000E-03  5.000000E-01  9.958404E-12  8.589806E-11  0.000000E+00    1 
 1.850000E+00  7.500000E-03  5.000000E-01  9.958355E-12  8.452165E-11  0.000000E+00    1 
 1.950000E+00  7.500000E-03  5.000000E-01  9.958301E-12  8.314591E-11  0.000000E+00    1 
 2.100000E+00  7.500000E-03  5.000000E-01  9.958213E-12  8.108299E-11  0.000000E+00    1 
 2.300000E+00  7.500000E-03  5.000000E-01  9.958093E-12  7.833348E-11  0.000000E+00    1 
 2.500000E+00  7.500000E-03  5.000000E-01  9.957972E-12  7.558448E-11  0.000000E+00    1 
 2.700000E+00  7.500000E-03  5.000000E-01  9.957853E-12  7.283573E-11  0.000000E+00    1 
 2.900000E+00  7.500000E-03  5.000000E-01  9.957738E-12  7.008710E-11  0.000000E+00    1 
 3.100000E+00  7.500000E-03  5.000000E-01  9.957627E-12  6.733854E-11  0.000000E+00    1 
 3.300000E+00  7.500000E-03  5.000000E-01  9.957520E-12  6.459001E-11  0.000000E+00    1 
 3.500000E+00  7.500000E-03  5.000000E-01  9.957417E-12  6.184149E-11  0.000000E+00    1 
 3.700000E+00  7.500000E-03  5.000000E-01  9.957319E-12  5.909296E-11  0.000000E+00    1 
 3.900000E+00  7.500000E-03  5.000000E-01  9.957224E-12  5.634442E-11  0.000000E+00    1 
 4.500000E+00  7.500000E-03  5.000000E-01  9.956978E-12  4.809868E-11  0.000000E+00    1 
 5.500000E+00  7.500000E-03  5.000000E-01  9.956540E-12  3.435145E-11  0.000000E+00    1 
 6.500000E+00  7.500000E-03  5.000000E-01  9.953415E-12  2.052562E-11  0.000000E+00    1 
 7.500000E+00  7.500000E-03  5.000000E-01  9.950527E-12  4.479538E-12  0.000000E+00    1 
 5.000000E-03  1.250000E-02  5.000000E-01  5.624327E-12  1.304851E-10  0.000000E+00    1 
 1.500000E-02  1.250000E-02  5.000000E-01  6.604992E-12  1.267104E-10  0.000000E+00    1 
 2.500000E-02  1.250000E-02  5.000000E-01  7.985551E-12  1.239280E-10  0.000000E+00    1 
 3.500000E-02  1.250000E-02  5.000000E-01  8.588671E-12  1.219106E-10  0.000000E+00    1 
 4.500000E-02  1.250000E-02  5.000000E-01  8.913145E-12  1.203588E-10  0.000000E+00    1 
 5.500000E-02  1.250000E-02  5.000000E-01  9.114705E-12  1.191043E-10  0.000000E+00    1 
 6.500000E-02  1.250000E-02  5.000000E-01  9.252081E-12  1.180531E-10  0.000000E+00    1 
 7.500000E-02  1.250000E-02  5.000000E-01  9.351758E-12  1.171486E-10  0.000000E+00    1 
 8.500000E-02  1.250000E-02  5.000000E-01  9.427405E-12  1.163547E-10  0.000000E+00    1 
 9.500000E-02  1.250000E-02  5.000000E-01  9.486817E-12  1.156472E-10  0.000000E+00    1 
 1.100000E-01  1.250000E-02  5.000000E-01  9.551623E-12  1.146897E-10  0.000000E+00    1 
 1.300000E-01  1.250000E-02  5.000000E-01  9.617346E-12  1.136156E-10  0.000000E+00    1 
 1.500000E-01  1.250000E-02  5.000000E-01  9.664935E-12  1.126858E-10  0.000000E+00    1 
 1.700000E-01  1.250000E-02  5.000000E-01  9.700847E-12  1.118636E-10  0.000000E+00    1 
 1.900000E-01  1.250000E-02  5.000000E-01  9.728822E-12  1.111243E-10  0.000000E+00    1 
 2.100000E-01  1.250000E-02  5.000000E-01  9.751168E-12  1.104507E-10  0.000000E+00    1 
 2.300000E-01  1.250000E-02  5.000000E-01  9.769382E-12  1.098302E-10  0.000000E+00    1 
 2.500000E-01  1.250000E-02  5.000000E-01  9.784475E-12  1.092536E-10  0.000000E+00    1 
 2.700000E-01  1.250000E-02  5.000000E-01  9.797156E-12  1.087135E-10  0.000000E+00    1 
 2.900000E-01  1.250000E-02  5.000000E-01  9.807935E-12  1.082044E-10  0.000000E+00    1 
 3.250000E-01  1.250000E-02  5.000000E-01  9.822354E-12  1.073598E-10  0.000000E+00    1 
 3.750000E-01  1.250000E-02  5.000000E-01  9.838577E-12  1.062794E-10  0.000000E+00    1 
 4.250000E-01  1.250000E-02  5.000000E-01  9.850334E-12  1.052894E-10  0.000000E+00    1 
 4.750000E-01  1.250000E-02  5.000000E-01  9.859065E-12  1.043662E-10  0.000000E+00    1 
 5.250000E-01  1.250000E-02  5.000000E-01  9.865671E-12  1.034932E-10  0.000000E+00    1 
 5.750000E-01  1.250000E-02  5.000000E-01  9.870740E-12  1.026585E-10  0.000000E+00    1 
 6.250000E-01  1.250000E-02  5.000000E-01  9.874674E-12  1.018535E-10  0.000000E+00    1 
 6.750000E-01  1.250000E-02  5.000000E-01  9.877753E-12  1.010718E-10  0.000000E+00    1 
 7.250000E-01  1.250000E-02  5.000000E-01  9.880181E-12  1.003085E-10  0.000000E+00    1 
 7.750000E-01  1.250000E-02  5.000000E-01  9.882107E-12  9.955969E-11  0.000000E+00    1 
 8.250000E-01  1.250000E-02  5.000000E-01  9.883640E-12  9.882254E-11  0.000000E+00    1 
 8.750000E-01  1.250000E-02  5.000000E-01  9.884866E-12  9.809473E-11  0.000000E+00    1 
 9.250000E-01  1.250000E-02  5.000000E-01  9.885849E-12  9.737445E-11  0.000000E+00    1 
 9.750000E-01  1.250000E-02  5.000000E-01  9.886639E-12  9.666027E-11  0.000000E+00    1 
 1.050000E+00  1.250000E-02  5.000000E-01  9.887490E-12  9.559643E-11  0.000000E+00    1 
 1.150000E+00  1.250000E-02  5.000000E-01  9.888312E-12  9.419235E-11  0.000000E+00    1 
 1.250000E+00  1.250000E-02  5.000000E-01  9.888838E-12  9.279786E-11  0.000000E+00    1 
 1.350000E+00  1.250000E-02  5.000000E-01  9.889169E-12  9.140983E-11  0.000000E+00    1 
 1.450000E+00  1.250000E-02  5.000000E-01  9.889371E-12  9.002618E-11  0.000000E+00    1 
 1.550000E+00  1.250000E-02  5.000000E-01  9.889486E-12  8.864551E-11  0.000000E+00    1 
 1.650000E+00  1.250000E-02  5.000000E-01  9.889543E-12  8.726687E-11  0.000000E+00    1 
 1.750000E+00  1.250000E-02  5.000000E-01  9.889561E-12  8.588963E-11  0.000000E+00    1 
 1.850000E+00  1.250000E-02  5.000000E-01  9.889552E-12  8.451335E-11  0.000000E+00    1 
 1.950000E+00  1.250000E-02  5.000000E-01  9.889527E-12  8.313774E-11  0.000000E+00    1 
 2.100000E+00  1.250000E-02  5.000000E-01  9.889464E-12  8.107502E-11  0.000000E+00    1 
 2.300000E+00  1.250000E-02  5.000000E-01  9.889363E-12  7.832577E-11  0.000000E+00    1 
 2.500000E+00  1.250000E-02  5.000000E-01  9.889252E-12  7.557704E-11  0.000000E+00    1 
 2.700000E+00  1.250000E-02  5.000000E-01  9.889138E-12  7.282855E-11  0.000000E+00    1 
 2.900000E+00  1.250000E-02  5.000000E-01  9.889025E-12  7.008020E-11  0.000000E+00    1 
 3.100000E+00  1.250000E-02  5.000000E-01  9.888915E-12  6.733190E-11  0.000000E+00    1 
 3.300000E+00  1.250000E-02  5.000000E-01  9.888808E-12  6.458364E-11  0.000000E+00    1 
 3.500000E+00  1.250000E-02  5.000000E-01  9.888706E-12  6.183538E-11  0.000000E+00    1 
 3.700000E+00  1.250000E-02  5.000000E-01  9.888607E-12  5.908713E-11  0.000000E+00    1 
 3.900000E+00  1.250000E-02  5.000000E-01  9.888512E-12  5.633885E-11  0.000000E+00    1 
 4.500000E+00  1.250000E-02  5.000000E-01  9.888254E-12  4.809392E-11  0.000000E+00    1 
 5.500000E+00  1.250000E-02  5.000000E-01  9.887609E-12  3.434805E-11  0.000000E+00    1 
 6.500000E+00  1.250000E-02  5.000000E-01  9.878799E-12  2.052361E-11  0.000000E+00    1 
 7.500000E+00  1.250000E-02  5.000000E-01  9.870422E-12  4.528249E-12  0.000000E+00    1 
 5.000000E-03  1.750000E-02  5.000000E-01  4.194882E-12  1.280099E-10  0.000000E+00    1 
 1.500000E-02  1.750000E-02  5.000000E-01  5.267249E-12  1.256635E-10  0.000000E+00    1 
 2.500000E-02  1.750000E-02  5.000000E-01  6.882779E-12  1.234360E-10  0.000000E+00    1 
 3.500000E-02  1.750000E-02  5.000000E-01  7.731210E-12  1.216360E-10  0.000000E+00    1 
 4.500000E-02  1.750000E-02  5.000000E-01  8.226939E-12  1.201825E-10  0.000000E+00    1 
 5.500000E-02  1.750000E-02  5.000000E-01  8.546303E-12  1.189793E-10  0.000000E+00    1 
 6.500000E-02  1.750000E-02  5.000000E-01  8.767855E-12  1.179578E-10  0.000000E+00    1 
 7.500000E-02  1.750000E-02  5.000000E-01  8.930173E-12  1.170720E-10  0.000000E+00    1 
 8.500000E-02  1.750000E-02  5.000000E-01  9.054086E-12  1.162907E-10  0.000000E+00    1 
 9.500000E-02  1.750000E-02  5.000000E-01  9.151776E-12  1.155919E-10  0.000000E+00    1 
 1.100000E-01  1.750000E-02  5.000000E-01  9.258717E-12  1.146438E-10  0.000000E+00    1 
 1.300000E-01  1.750000E-02  5.000000E-01  9.367427E-12  1.135770E-10  0.000000E+00    1 
 1.500000E-01  1.750000E-02  5.000000E-01  9.446306E-12  1.126519E-10  0.000000E+00    1 
 1.700000E-01  1.750000E-02  5.000000E-01  9.505911E-12  1.118328E-10  0.000000E+00    1 
 1.900000E-01  1.750000E-02  5.000000E-01  9.552388E-12  1.110958E-10  0.000000E+00    1 
 2.100000E-01  1.750000E-02  5.000000E-01  9.589541E-12  1.104237E-10  0.000000E+00    1 
 2.300000E-01  1.750000E-02  5.000000E-01  9.619840E-12  1.098045E-10  0.000000E+00    1 
 2.500000E-01  1.750000E-02  5.000000E-01  9.644958E-12  1.092287E-10  0.000000E+00    1 
 2.700000E-01  1.750000E-02  5.000000E-01  9.666069E-12  1.086894E-10  0.000000E+00    1 
 2.900000E-01  1.750000E-02  5.000000E-01  9.684019E-12  1.081808E-10  0.000000E+00    1 
 3.250000E-01  1.750000E-02  5.000000E-01  9.708044E-12  1.073371E-10  0.000000E+00    1 
 3.750000E-01  1.750000E-02  5.000000E-01  9.735084E-12  1.062575E-10  0.000000E+00    1 
 4.250000E-01  1.750000E-02  5.000000E-01  9.754693E-12  1.052681E-10  0.000000E+00    1 
 4.750000E-01  1.750000E-02  5.000000E-01  9.769264E-12  1.043453E-10  0.000000E+00    1 
 5.250000E-01  1.750000E-02  5.000000E-01  9.780296E-12  1.034725E-10  0.000000E+00    1 
 5.750000E-01  1.750000E-02  5.000000E-01  9.788769E-12  1.026381E-10  0.000000E+00    1 
 6.250000E-01  1.750000E-02  5.000000E-01  9.795350E-12  1.018334E-10  0.000000E+00    1 
 6.750000E-01  1.750000E-02  5.000000E-01  9.800508E-12  1.010519E-10  0.000000E+00    1 
 7.250000E-01  1.750000E-02  5.000000E-01  9.804581E-12  1.002888E-10  0.000000E+00    1 
 7.750000E-01  1.750000E-02  5.000000E-01  9.807816E-12  9.954015E-11  0.000000E+00    1 
 8.250000E-01  1.750000E-02  5.000000E-01  9.810398E-12  9.880316E-11  0.000000E+00    1 
 8.750000E-01  1.750000E-02  5.000000E-01  9.812467E-12  9.807551E-11  0.000000E+00    1 
 9.250000E-01  1.750000E-02  5.000000E-01  9.814132E-12  9.735538E-11  0.000000E+00    1 
 9.750000E-01  1.750000E-02  5.000000E-01  9.815474E-12  9.664135E-11  0.000000E+00    1 
 1.050000E+00  1.750000E-02  5.000000E-01  9.816932E-12  9.557773E-11  0.000000E+00    1 
 1.150000E+00  1.750000E-02  5.000000E-01  9.818352E-12  9.417392E-11  0.000000E+00    1 
 1.250000E+00  1.750000E-02  5.000000E-01  9.819280E-12  9.277970E-11  0.000000E+00    1 
 1.350000E+00  1.750000E-02  5.000000E-01  9.819882E-12  9.139195E-11  0.000000E+00    1 
 1.450000E+00  1.750000E-02  5.000000E-01  9.820268E-12  9.000856E-11  0.000000E+00    1 
 1.550000E+00  1.750000E-02  5.000000E-01  9.820508E-12  8.862816E-11  0.000000E+00    1 
 1.650000E+00  1.750000E-02  5.000000E-01  9.820651E-12  8.724979E-11  0.000000E+00    1 
 1.750000E+00  1.750000E-02  5.000000E-01  9.820728E-12  8.587281E-11  0.000000E+00    1 
 1.850000E+00  1.750000E-02  5.000000E-01  9.820760E-12  8.449680E-11  0.000000E+00    1 
 1.950000E+00  1.750000E-02  5.000000E-01  9.820763E-12  8.312146E-11  0.000000E+00    1 
 2.100000E+00  1.750000E-02  5.000000E-01  9.820724E-12  8.105914E-11  0.000000E+00    1 
 2.300000E+00  1.750000E-02  5.000000E-01  9.820643E-12  7.831043E-11  0.000000E+00    1 
 2.500000E+00  1.750000E-02  5.000000E-01  9.820542E-12  7.556222E-11  0.000000E+00    1 
 2.700000E+00  1.750000E-02  5.000000E-01  9.820432E-12  7.281428E-11  0.000000E+00    1 
 2.900000E+00  1.750000E-02  5.000000E-01  9.820322E-12  7.006645E-11  0.000000E+00    1 
 3.100000E+00  1.750000E-02  5.000000E-01  9.820213E-12  6.731870E-11  0.000000E+00    1 
 3.300000E+00  1.750000E-02  5.000000E-01  9.820107E-12  6.457097E-11  0.000000E+00    1 
 3.500000E+00  1.750000E-02  5.000000E-01  9.820004E-12  6.182325E-11  0.000000E+00    1 
 3.700000E+00  1.750000E-02  5.000000E-01  9.819905E-12  5.907553E-11  0.000000E+00    1 
 3.900000E+00  1.750000E-02  5.000000E-01  9.819810E-12  5.632779E-11  0.000000E+00    1 
 4.500000E+00  1.750000E-02  5.000000E-01  9.819541E-12  4.808447E-11  0.000000E+00    1 
 5.500000E+00  1.750000E-02  5.000000E-01  9.818689E-12  3.434130E-11  0.000000E+00    1 
 6.500000E+00  1.750000E-02  5.000000E-01  9.804316E-12  2.051964E-11  0.000000E+00    1 
 7.500000E+00  1.750000E-02  5.000000E-01  9.790573E-12  4.575731E-12  0.000000E+00    1 
 5.000000E-03  2.250000E-02  5.000000E-01  3.277976E-12  1.261110E-10  0.000000E+00    1 
 1.500000E-02  2.250000E-02  5.000000E-01  4.318075E-12  1.245767E-10  0.000000E+00    1 
 2.500000E-02  2.250000E-02  5.000000E-01  5.971782E-12  1.228270E-10  0.000000E+00    1 
 3.500000E-02  2.250000E-02  5.000000E-01  6.961924E-12  1.212645E-10  0.000000E+00    1 
 4.500000E-02  2.250000E-02  5.000000E-01  7.584826E-12  1.199335E-10  0.000000E+00    1 
 5.500000E-02  2.250000E-02  5.000000E-01  8.002355E-12  1.187987E-10  0.000000E+00    1 
 6.500000E-02  2.250000E-02  5.000000E-01  8.298439E-12  1.178184E-10  0.000000E+00    1 
 7.500000E-02  2.250000E-02  5.000000E-01  8.518192E-12  1.169592E-10  0.000000E+00    1 
 8.500000E-02  2.250000E-02  5.000000E-01  8.687325E-12  1.161958E-10  0.000000E+00    1 
 9.500000E-02  2.250000E-02  5.000000E-01  8.821387E-12  1.155097E-10  0.000000E+00    1 
 1.100000E-01  2.250000E-02  5.000000E-01  8.968907E-12  1.145754E-10  0.000000E+00    1 
 1.300000E-01  2.250000E-02  5.000000E-01  9.119376E-12  1.135195E-10  0.000000E+00    1 
 1.500000E-01  2.250000E-02  5.000000E-01  9.228885E-12  1.126013E-10  0.000000E+00    1 
 1.700000E-01  2.250000E-02  5.000000E-01  9.311801E-12  1.117868E-10  0.000000E+00    1 
 1.900000E-01  2.250000E-02  5.000000E-01  9.376543E-12  1.110530E-10  0.000000E+00    1 
 2.100000E-01  2.250000E-02  5.000000E-01  9.428347E-12  1.103833E-10  0.000000E+00    1 
 2.300000E-01  2.250000E-02  5.000000E-01  9.470627E-12  1.097658E-10  0.000000E+00    1 
 2.500000E-01  2.250000E-02  5.000000E-01  9.505698E-12  1.091915E-10  0.000000E+00    1 
 2.700000E-01  2.250000E-02  5.000000E-01  9.535186E-12  1.086532E-10  0.000000E+00    1 
 2.900000E-01  2.250000E-02  5.000000E-01  9.560270E-12  1.081455E-10  0.000000E+00    1 
 3.250000E-01  2.250000E-02  5.000000E-01  9.593858E-12  1.073031E-10  0.000000E+00    1 
 3.750000E-01  2.250000E-02  5.000000E-01  9.631676E-12  1.062246E-10  0.000000E+00    1 
 4.250000E-01  2.250000E-02  5.000000E-01  9.659112E-12  1.052361E-10  0.000000E+00    1 
 4.750000E-01  2.250000E-02  5.000000E-01  9.679510E-12  1.043139E-10  0.000000E+00    1 
 5.250000E-01  2.250000E-02  5.000000E-01  9.694959E-12  1.034416E-10  0.000000E+00    1 
 5.750000E-01  2.250000E-02  5.000000E-01  9.706829E-12  1.026076E-10  0.000000E+00    1 
 6.250000E-01  2.250000E-02  5.000000E-01  9.716054E-12  1.018033E-10  0.000000E+00    1 
 6.750000E-01  2.250000E-02  5.000000E-01  9.723288E-12  1.010221E-10  0.000000E+00    1 
 7.250000E-01  2.250000E-02  5.000000E-01  9.729003E-12  1.002592E-10  0.000000E+00    1 
 7.750000E-01  2.250000E-02  5.000000E-01  9.733546E-12  9.951086E-11  0.000000E+00    1 
 8.250000E-01  2.250000E-02  5.000000E-01  9.737176E-12  9.877412E-11  0.000000E+00    1 
 8.750000E-01  2.250000E-02  5.000000E-01  9.740088E-12  9.804670E-11  0.000000E+00    1 
 9.250000E-01  2.250000E-02  5.000000E-01  9.742433E-12  9.732680E-11  0.000000E+00    1 
 9.750000E-01  2.250000E-02  5.000000E-01  9.744328E-12  9.661299E-11  0.000000E+00    1 
 1.050000E+00  2.250000E-02  5.000000E-01  9.746392E-12  9.554969E-11  0.000000E+00    1 
 1.150000E+00  2.250000E-02  5.000000E-01  9.748410E-12  9.414630E-11  0.000000E+00    1 
 1.250000E+00  2.250000E-02  5.000000E-01  9.749739E-12  9.275250E-11  0.000000E+00    1 
 1.350000E+00  2.250000E-02  5.000000E-01  9.750612E-12  9.136515E-11  0.000000E+00    1 
 1.450000E+00  2.250000E-02  5.000000E-01  9.751181E-12  8.998217E-11  0.000000E+00    1 
 1.550000E+00  2.250000E-02  5.000000E-01  9.751547E-12  8.860217E-11  0.000000E+00    1 
 1.650000E+00  2.250000E-02  5.000000E-01  9.751776E-12  8.722420E-11  0.000000E+00    1 
 1.750000E+00  2.250000E-02  5.000000E-01  9.751912E-12  8.584763E-11  0.000000E+00    1 
 1.850000E+00  2.250000E-02  5.000000E-01  9.751985E-12  8.447202E-11  0.000000E+00    1 
 1.950000E+00  2.250000E-02  5.000000E-01  9.752016E-12  8.309707E-11  0.000000E+00    1 
 2.100000E+00  2.250000E-02  5.000000E-01  9.752002E-12  8.103536E-11  0.000000E+00    1 
 2.300000E+00  2.250000E-02  5.000000E-01  9.751940E-12  7.828745E-11  0.000000E+00    1 
 2.500000E+00  2.250000E-02  5.000000E-01  9.751848E-12  7.554005E-11  0.000000E+00    1 
 2.700000E+00  2.250000E-02  5.000000E-01  9.751744E-12  7.279290E-11  0.000000E+00    1 
 2.900000E+00  2.250000E-02  5.000000E-01  9.751636E-12  7.004588E-11  0.000000E+00    1 
 3.100000E+00  2.250000E-02  5.000000E-01  9.751528E-12  6.729892E-11  0.000000E+00    1 
 3.300000E+00  2.250000E-02  5.000000E-01  9.751422E-12  6.455200E-11  0.000000E+00    1 
 3.500000E+00  2.250000E-02  5.000000E-01  9.751320E-12  6.180508E-11  0.000000E+00    1 
 3.700000E+00  2.250000E-02  5.000000E-01  9.751220E-12  5.905817E-11  0.000000E+00    1 
 3.900000E+00  2.250000E-02  5.000000E-01  9.751124E-12  5.631124E-11  0.000000E+00    1 
 4.500000E+00  2.250000E-02  5.000000E-01  9.750844E-12  4.807033E-11  0.000000E+00    1 
 5.500000E+00  2.250000E-02  5.000000E-01  9.749785E-12  3.433120E-11  0.000000E+00    1 
 6.500000E+00  2.250000E-02  5.000000E-01  9.729971E-12  2.051370E-11  0.000000E+00    1 
 7.500000E+00  2.250000E-02  5.000000E-01  9.710983E-12  4.621986E-12  0.000000E+00    1 
 5.000000E-03  2.750000E-02  5.000000E-01  2.660514E-12  1.245856E-10  0.000000E+00    1 
 1.500000E-02  2.750000E-02  5.000000E-01  3.625247E-12  1.235335E-10  0.000000E+00    1 
 2.500000E-02  2.750000E-02  5.000000E-01  5.226678E-12  1.221611E-10  0.000000E+00    1 
 3.500000E-02  2.750000E-02  5.000000E-01  6.284451E-12  1.208249E-10  0.000000E+00    1 
 4.500000E-02  2.750000E-02  5.000000E-01  6.994058E-12  1.196253E-10  0.000000E+00    1 
 5.500000E-02  2.750000E-02  5.000000E-01  7.488770E-12  1.185692E-10  0.000000E+00    1 
 6.500000E-02  2.750000E-02  5.000000E-01  7.848108E-12  1.176386E-10  0.000000E+00    1 
 7.500000E-02  2.750000E-02  5.000000E-01  8.118869E-12  1.168122E-10  0.000000E+00    1 
 8.500000E-02  2.750000E-02  5.000000E-01  8.329335E-12  1.160715E-10  0.000000E+00    1 
 9.500000E-02  2.750000E-02  5.000000E-01  8.497284E-12  1.154015E-10  0.000000E+00    1 
 1.100000E-01  2.750000E-02  5.000000E-01  8.683313E-12  1.144850E-10  0.000000E+00    1 
 1.300000E-01  2.750000E-02  5.000000E-01  8.873891E-12  1.134432E-10  0.000000E+00    1 
 1.500000E-01  2.750000E-02  5.000000E-01  9.013133E-12  1.125340E-10  0.000000E+00    1 
 1.700000E-01  2.750000E-02  5.000000E-01  9.118833E-12  1.117256E-10  0.000000E+00    1 
 1.900000E-01  2.750000E-02  5.000000E-01  9.201514E-12  1.109960E-10  0.000000E+00    1 
 2.100000E-01  2.750000E-02  5.000000E-01  9.267758E-12  1.103295E-10  0.000000E+00    1 
 2.300000E-01  2.750000E-02  5.000000E-01  9.321874E-12  1.097144E-10  0.000000E+00    1 
 2.500000E-01  2.750000E-02  5.000000E-01  9.366797E-12  1.091418E-10  0.000000E+00    1 
 2.700000E-01  2.750000E-02  5.000000E-01  9.404590E-12  1.086050E-10  0.000000E+00    1 
 2.900000E-01  2.750000E-02  5.000000E-01  9.436752E-12  1.080985E-10  0.000000E+00    1 
 3.250000E-01  2.750000E-02  5.000000E-01  9.479844E-12  1.072577E-10  0.000000E+00    1 
 3.750000E-01  2.750000E-02  5.000000E-01  9.528385E-12  1.061808E-10  0.000000E+00    1 
 4.250000E-01  2.750000E-02  5.000000E-01  9.563617E-12  1.051934E-10  0.000000E+00    1 
 4.750000E-01  2.750000E-02  5.000000E-01  9.589822E-12  1.042720E-10  0.000000E+00    1 
 5.250000E-01  2.750000E-02  5.000000E-01  9.609675E-12  1.034005E-10  0.000000E+00    1 
 5.750000E-01  2.750000E-02  5.000000E-01  9.624934E-12  1.025670E-10  0.000000E+00    1 
 6.250000E-01  2.750000E-02  5.000000E-01  9.636796E-12  1.017631E-10  0.000000E+00    1 
 6.750000E-01  2.750000E-02  5.000000E-01  9.646102E-12  1.009824E-10  0.000000E+00    1 
 7.250000E-01  2.750000E-02  5.000000E-01  9.653457E-12  1.002198E-10  0.000000E+00    1 
 7.750000E-01  2.750000E-02  5.000000E-01  9.659306E-12  9.947184E-11  0.000000E+00    1 
 8.250000E-01  2.750000E-02  5.000000E-01  9.663982E-12  9.873543E-11  0.000000E+00    1 
 8.750000E-01  2.750000E-02  5.000000E-01  9.667735E-12  9.800832E-11  0.000000E+00    1 
 9.250000E-01  2.750000E-02  5.000000E-01  9.670760E-12  9.728872E-11  0.000000E+00    1 
 9.750000E-01  2.750000E-02  5.000000E-01  9.673207E-12  9.657521E-11  0.000000E+00    1 
 1.050000E+00  2.750000E-02  5.000000E-01  9.675877E-12  9.551234E-11  0.000000E+00    1 
 1.150000E+00  2.750000E-02  5.000000E-01  9.678493E-12  9.410951E-11  0.000000E+00    1 
 1.250000E+00  2.750000E-02  5.000000E-01  9.680222E-12  9.271626E-11  0.000000E+00    1 
 1.350000E+00  2.750000E-02  5.000000E-01  9.681366E-12  9.132945E-11  0.000000E+00    1 
 1.450000E+00  2.750000E-02  5.000000E-01  9.682119E-12  8.994702E-11  0.000000E+00    1 
 1.550000E+00  2.750000E-02  5.000000E-01  9.682610E-12  8.856755E-11  0.000000E+00    1 
 1.650000E+00  2.750000E-02  5.000000E-01  9.682924E-12  8.719012E-11  0.000000E+00    1 