TITLE = "  1.15741E-01 [d]"
VARIABLES="X [m]","Y [m]","Z [m]","Liquid Pressure [Pa]","Liquid Saturation","Total Tracer_conservative [M]","Total Tracer_decay [M]","Total Tracer_sorbing [M]","Material ID"
ZONE T="1.15741E-01", STRANDID=1, SOLUTIONTIME=1.15741E-01, I=58, J=38, K=1, DATAPACKING=POINT
 5.000000E-03  2.500000E-03  5.000000E-01  1.131223E+05  1.000000E+00  9.263691E-01  9.263678E-01  9.238735E-01    2 
 1.500000E-02  2.500000E-03  5.000000E-01  1.131119E+05  1.000000E+00  7.820628E-01  7.820600E-01  7.748276E-01    2 
 2.500000E-02  2.500000E-03  5.000000E-01  1.131016E+05  1.000000E+00  6.445771E-01  6.445735E-01  6.333482E-01    2 
 3.500000E-02  2.500000E-03  5.000000E-01  1.130912E+05  1.000000E+00  5.184200E-01  5.184163E-01  5.043350E-01    2 
 4.500000E-02  2.500000E-03  5.000000E-01  1.130808E+05  1.000000E+00  4.068459E-01  4.068424E-01  3.912188E-01    2 
 5.500000E-02  2.500000E-03  5.000000E-01  1.130705E+05  1.000000E+00  3.116389E-01  3.116359E-01  2.957415E-01    2 
 6.500000E-02  2.500000E-03  5.000000E-01  1.130601E+05  1.000000E+00  2.331574E-01  2.331548E-01  2.180485E-01    2 
 7.500000E-02  2.500000E-03  5.000000E-01  1.130497E+05  1.000000E+00  1.705767E-01  1.705746E-01  1.570076E-01    2 
 8.500000E-02  2.500000E-03  5.000000E-01  1.130394E+05  1.000000E+00  1.222421E-01  1.222405E-01  1.106379E-01    2 
 9.500000E-02  2.500000E-03  5.000000E-01  1.130290E+05  1.000000E+00  8.603855E-02  8.603737E-02  7.653882E-02    2 
 1.100000E-01  2.500000E-03  5.000000E-01  1.130135E+05  1.000000E+00  4.654632E-02  4.654562E-02  4.009312E-02    2 
 1.300000E-01  2.500000E-03  5.000000E-01  1.129927E+05  1.000000E+00  2.054201E-02  2.054167E-02  1.701909E-02    2 
 1.500000E-01  2.500000E-03  5.000000E-01  1.129720E+05  1.000000E+00  8.557928E-03  8.557776E-03  6.811455E-03    2 
 1.700000E-01  2.500000E-03  5.000000E-01  1.129513E+05  1.000000E+00  3.391359E-03  3.391294E-03  2.591114E-03    2 
 1.900000E-01  2.500000E-03  5.000000E-01  1.129305E+05  1.000000E+00  1.286864E-03  1.286838E-03  9.433840E-04    2 
 2.100000E-01  2.500000E-03  5.000000E-01  1.129098E+05  1.000000E+00  4.702543E-04  4.702442E-04  3.306984E-04    2 
 2.300000E-01  2.500000E-03  5.000000E-01  1.128891E+05  1.000000E+00  1.663212E-04  1.663174E-04  1.121909E-04    2 
 2.500000E-01  2.500000E-03  5.000000E-01  1.128684E+05  1.000000E+00  5.720841E-05  5.720704E-05  3.701455E-05    2 
 2.700000E-01  2.500000E-03  5.000000E-01  1.128476E+05  1.000000E+00  1.930278E-05  1.930230E-05  1.197680E-05    2 
 2.900000E-01  2.500000E-03  5.000000E-01  1.128269E+05  1.000000E+00  6.714904E-06  6.714727E-06  3.999226E-06    2 
 3.250000E-01  2.500000E-03  5.000000E-01  1.127907E+05  1.000000E+00  8.553765E-07  8.553524E-07  4.787501E-07    2 
 3.750000E-01  2.500000E-03  5.000000E-01  1.127389E+05  1.000000E+00  7.848006E-08  7.847770E-08  4.125794E-08    2 
 4.250000E-01  2.500000E-03  5.000000E-01  1.126871E+05  1.000000E+00  7.005791E-09  7.005565E-09  3.464298E-09    2 
 4.750000E-01  2.500000E-03  5.000000E-01  1.126353E+05  1.000000E+00  6.122208E-10  6.121999E-10  2.850914E-10    2 
 5.250000E-01  2.500000E-03  5.000000E-01  1.125835E+05  1.000000E+00  5.262756E-11  5.262565E-11  2.310095E-11    2 
 5.750000E-01  2.500000E-03  5.000000E-01  1.125317E+05  1.000000E+00  4.467254E-12  4.467082E-12  1.849898E-12    2 
 6.250000E-01  2.500000E-03  5.000000E-01  1.124800E+05  1.000000E+00  3.755869E-13  3.755716E-13  1.468214E-13    2 
 6.750000E-01  2.500000E-03  5.000000E-01  1.124282E+05  1.000000E+00  3.135019E-14  3.134884E-14  1.157485E-14    2 
 7.250000E-01  2.500000E-03  5.000000E-01  1.123765E+05  1.000000E+00  2.602643E-15  2.602526E-15  9.079495E-16    2 
 7.750000E-01  2.500000E-03  5.000000E-01  1.123247E+05  1.000000E+00  2.152010E-16  2.151908E-16  7.096391E-17    2 
 8.250000E-01  2.500000E-03  5.000000E-01  1.122730E+05  1.000000E+00  1.774907E-17  1.774819E-17  5.539719E-18    2 
 8.750000E-01  2.500000E-03  5.000000E-01  1.122213E+05  1.000000E+00  1.469090E-18  1.469014E-18  4.400924E-19    2 
 9.250000E-01  2.500000E-03  5.000000E-01  1.121695E+05  1.000000E+00  1.298376E-19  1.298310E-19  4.340724E-20    2 
 9.750000E-01  2.500000E-03  5.000000E-01  1.121178E+05  1.000000E+00  2.003394E-20  2.003319E-20  1.264338E-20    2 
 1.050000E+00  2.500000E-03  5.000000E-01  1.120402E+05  1.000000E+00  1.031961E-20  1.031941E-20  1.007920E-20    2 
 1.150000E+00  2.500000E-03  5.000000E-01  1.119368E+05  1.000000E+00  1.000804E-20  1.000786E-20  1.000190E-20    2 
 1.250000E+00  2.500000E-03  5.000000E-01  1.118334E+05  1.000000E+00  1.000023E-20  1.000005E-20  1.000008E-20    2 
 1.350000E+00  2.500000E-03  5.000000E-01  1.117301E+05  1.000000E+00  1.000004E-20  9.999856E-21  1.000003E-20    2 
 1.450000E+00  2.500000E-03  5.000000E-01  1.116267E+05  1.000000E+00  1.000003E-20  9.999850E-21  1.000003E-20    2 
 1.550000E+00  2.500000E-03  5.000000E-01  1.115234E+05  1.000000E+00  1.000003E-20  9.999850E-21  1.000003E-20    2 
 1.650000E+00  2.500000E-03  5.000000E-01  1.114201E+05  1.000000E+00  1.000003E-20  9.999849E-21  1.000003E-20    2 
 1.750000E+00  2.500000E-03  5.000000E-01  1.113168E+05  1.000000E+00  1.000003E-20  9.999849E-21  1.000003E-20    2 
 1.850000E+00  2.500000E-03  5.000000E-01  1.112136E+05  1.000000E+00  1.000003E-20  9.999848E-21  1.000003E-20    2 
 1.950000E+00  2.500000E-03  5.000000E-01  1.111103E+05  1.000000E+00  1.000003E-20  9.999848E-21  1.000003E-20    2 
 2.100000E+00  2.500000E-03  5.000000E-01  1.109555E+05  1.000000E+00  1.000003E-20  9.999847E-21  1.000003E-20    2 
 2.300000E+00  2.500000E-03  5.000000E-01  1.107491E+05  1.000000E+00  1.000003E-20  9.999846E-21  1.000003E-20    2 
 2.500000E+00  2.500000E-03  5.000000E-01  1.105429E+05  1.000000E+00  1.000003E-20  9.999845E-21  1.000003E-20    2 
 2.700000E+00  2.500000E-03  5.000000E-01  1.103366E+05  1.000000E+00  1.000002E-20  9.999844E-21  1.000002E-20    2 
 2.900000E+00  2.500000E-03  5.000000E-01  1.101305E+05  1.000000E+00  1.000002E-20  9.999844E-21  1.000002E-20    2 
 3.100000E+00  2.500000E-03  5.000000E-01  1.099244E+05  1.000000E+00  1.000002E-20  9.999843E-21  1.000002E-20    2 
 3.300000E+00  2.500000E-03  5.000000E-01  1.097184E+05  1.000000E+00  1.000002E-20  9.999842E-21  1.000002E-20    2 
 3.500000E+00  2.500000E-03  5.000000E-01  1.095125E+05  1.000000E+00  1.000002E-20  9.999841E-21  1.000002E-20    2 
 3.700000E+00  2.500000E-03  5.000000E-01  1.093066E+05  1.000000E+00  1.000002E-20  9.999840E-21  1.000002E-20    2 
 3.900000E+00  2.500000E-03  5.000000E-01  1.091008E+05  1.000000E+00  1.000002E-20  9.999839E-21  1.000002E-20    2 
 4.500000E+00  2.500000E-03  5.000000E-01  1.084835E+05  1.000000E+00  1.000002E-20  9.999836E-21  1.000002E-20    2 
 5.500000E+00  2.500000E-03  5.000000E-01  1.074558E+05  1.000000E+00  1.000001E-20  9.999832E-21  1.000001E-20    2 
 6.500000E+00  2.500000E-03  5.000000E-01  1.064289E+05  1.000000E+00  1.000001E-20  9.999827E-21  1.000001E-20    2 
 7.500000E+00  2.500000E-03  5.000000E-01  1.054026E+05  1.000000E+00  1.000000E-20  9.999822E-21  1.000000E-20    2 
 5.000000E-03  7.500000E-03  5.000000E-01  1.123120E+05  1.000000E+00  2.027027E-02  2.027006E-02  1.891818E-02    1 
 1.500000E-02  7.500000E-03  5.000000E-01  1.123040E+05  1.000000E+00  1.501799E-02  1.501782E-02  1.386498E-02    1 
 2.500000E-02  7.500000E-03  5.000000E-01  1.122949E+05  1.000000E+00  1.091915E-02  1.091902E-02  9.960702E-03    1 
 3.500000E-02  7.500000E-03  5.000000E-01  1.122856E+05  1.000000E+00  7.799586E-03  7.799487E-03  7.022134E-03    1 
 4.500000E-02  7.500000E-03  5.000000E-01  1.122763E+05  1.000000E+00  5.474839E-03  5.474764E-03  4.859385E-03    1 
 5.500000E-02  7.500000E-03  5.000000E-01  1.122669E+05  1.000000E+00  3.778005E-03  3.777951E-03  3.302339E-03    1 
 6.500000E-02  7.500000E-03  5.000000E-01  1.122576E+05  1.000000E+00  2.564709E-03  2.564670E-03  2.205531E-03    1 
 7.500000E-02  7.500000E-03  5.000000E-01  1.122482E+05  1.000000E+00  1.714787E-03  1.714760E-03  1.449506E-03    1 
 8.500000E-02  7.500000E-03  5.000000E-01  1.122388E+05  1.000000E+00  1.131730E-03  1.131712E-03  9.397732E-04    1 
 9.500000E-02  7.500000E-03  5.000000E-01  1.122295E+05  1.000000E+00  7.405900E-04  7.405774E-04  6.041800E-04    1 
 1.100000E-01  7.500000E-03  5.000000E-01  1.122154E+05  1.000000E+00  3.571924E-04  3.571860E-04  2.821039E-04    1 
 1.300000E-01  7.500000E-03  5.000000E-01  1.121967E+05  1.000000E+00  1.411203E-04  1.411176E-04  1.073006E-04    1 
 1.500000E-01  7.500000E-03  5.000000E-01  1.121780E+05  1.000000E+00  5.352928E-05  5.352819E-05  3.914718E-05    1 
 1.700000E-01  7.500000E-03  5.000000E-01  1.121593E+05  1.000000E+00  1.958701E-05  1.958659E-05  1.376878E-05    1 
 1.900000E-01  7.500000E-03  5.000000E-01  1.121406E+05  1.000000E+00  6.943564E-06  6.943407E-06  4.689762E-06    1 
 2.100000E-01  7.500000E-03  5.000000E-01  1.121219E+05  1.000000E+00  2.393901E-06  2.393844E-06  1.553156E-06    1 
 2.300000E-01  7.500000E-03  5.000000E-01  1.121032E+05  1.000000E+00  8.054705E-07  8.054503E-07  5.019430E-07    1 
 2.500000E-01  7.500000E-03  5.000000E-01  1.120845E+05  1.000000E+00  2.654228E-07  2.654159E-07  1.588603E-07    1 
 2.700000E-01  7.500000E-03  5.000000E-01  1.120658E+05  1.000000E+00  8.629641E-08  8.629404E-08  4.959450E-08    1 
 2.900000E-01  7.500000E-03  5.000000E-01  1.120471E+05  1.000000E+00  2.908984E-08  2.908901E-08  1.606427E-08    1 
 3.250000E-01  7.500000E-03  5.000000E-01  1.120143E+05  1.000000E+00  3.565131E-09  3.565022E-09  1.854086E-09    1 
 3.750000E-01  7.500000E-03  5.000000E-01  1.119676E+05  1.000000E+00  3.171045E-10  3.170941E-10  1.551853E-10    1 
 4.250000E-01  7.500000E-03  5.000000E-01  1.119209E+05  1.000000E+00  2.763614E-11  2.763518E-11  1.274051E-11    1 
 4.750000E-01  7.500000E-03  5.000000E-01  1.118741E+05  1.000000E+00  2.370868E-12  2.370781E-12  1.030549E-12    1 
 5.250000E-01  7.500000E-03  5.000000E-01  1.118274E+05  1.000000E+00  2.009516E-13  2.009438E-13  8.241950E-14    1 
 5.750000E-01  7.500000E-03  5.000000E-01  1.117807E+05  1.000000E+00  1.687695E-14  1.687626E-14  6.535351E-15    1 
 6.250000E-01  7.500000E-03  5.000000E-01  1.117339E+05  1.000000E+00  1.407620E-15  1.407560E-15  5.148701E-16    1 
 6.750000E-01  7.500000E-03  5.000000E-01  1.116872E+05  1.000000E+00  1.168003E-16  1.167950E-16  4.037863E-17    1 
 7.250000E-01  7.500000E-03  5.000000E-01  1.116405E+05  1.000000E+00  9.663156E-18  9.662695E-18  3.163801E-18    1 
 7.750000E-01  7.500000E-03  5.000000E-01  1.115938E+05  1.000000E+00  8.055558E-19  8.055158E-19  2.557410E-19    1 
 8.250000E-01  7.500000E-03  5.000000E-01  1.115471E+05  1.000000E+00  7.542719E-20  7.542359E-20  2.911132E-20    1 
 8.750000E-01  7.500000E-03  5.000000E-01  1.115004E+05  1.000000E+00  1.537262E-20  1.537214E-20  1.148427E-20    1 
 9.250000E-01  7.500000E-03  5.000000E-01  1.114538E+05  1.000000E+00  1.044077E-20  1.044057E-20  1.011520E-20    1 
 9.750000E-01  7.500000E-03  5.000000E-01  1.114071E+05  1.000000E+00  1.003690E-20  1.003672E-20  1.000914E-20    1 
 1.050000E+00  7.500000E-03  5.000000E-01  1.113371E+05  1.000000E+00  1.000120E-20  1.000102E-20  1.000030E-20    1 
 1.150000E+00  7.500000E-03  5.000000E-01  1.112438E+05  1.000000E+00  1.000006E-20  9.999878E-21  1.000004E-20    1 
 1.250000E+00  7.500000E-03  5.000000E-01  1.111505E+05  1.000000E+00  1.000003E-20  9.999849E-21  1.000003E-20    1 
 1.350000E+00  7.500000E-03  5.000000E-01  1.110572E+05  1.000000E+00  1.000003E-20  9.999848E-21  1.000003E-20    1 
 1.450000E+00  7.500000E-03  5.000000E-01  1.109640E+05  1.000000E+00  1.000003E-20  9.999847E-21  1.000003E-20    1 
 1.550000E+00  7.500000E-03  5.000000E-01  1.108708E+05  1.000000E+00  1.000003E-20  9.999847E-21  1.000003E-20    1 
 1.650000E+00  7.500000E-03  5.000000E-01  1.107776E+05  1.000000E+00  1.000003E-20  9.999847E-21  1.000003E-20    1 
 1.750000E+00  7.500000E-03  5.000000E-01  1.106844E+05  1.000000E+00  1.000003E-20  9.999846E-21  1.000003E-20    1 
 1.850000E+00  7.500000E-03  5.000000E-01  1.105912E+05  1.000000E+00  1.000003E-20  9.999846E-21  1.000003E-20    1 
 1.950000E+00  7.500000E-03  5.000000E-01  1.104981E+05  1.000000E+00  1.000003E-20  9.999845E-21  1.000003E-20    1 
 2.100000E+00  7.500000E-03  5.000000E-01  1.103584E+05  1.000000E+00  1.000002E-20  9.999845E-21  1.000002E-20    1 
 2.300000E+00  7.500000E-03  5.000000E-01  1.101723E+05  1.000000E+00  1.000002E-20  9.999844E-21  1.000002E-20    1 
 2.500000E+00  7.500000E-03  5.000000E-01  1.099862E+05  1.000000E+00  1.000002E-20  9.999843E-21  1.000002E-20    1 
 2.700000E+00  7.500000E-03  5.000000E-01  1.098002E+05  1.000000E+00  1.000002E-20  9.999842E-21  1.000002E-20    1 
 2.900000E+00  7.500000E-03  5.000000E-01  1.096143E+05  1.000000E+00  1.000002E-20  9.999841E-21  1.000002E-20    1 
 3.100000E+00  7.500000E-03  5.000000E-01  1.094285E+05  1.000000E+00  1.000002E-20  9.999840E-21  1.000002E-20    1 
 3.300000E+00  7.500000E-03  5.000000E-01  1.092427E+05  1.000000E+00  1.000002E-20  9.999840E-21  1.000002E-20    1 
 3.500000E+00  7.500000E-03  5.000000E-01  1.090570E+05  1.000000E+00  1.000002E-20  9.999839E-21  1.000002E-20    1 
 3.700000E+00  7.500000E-03  5.000000E-01  1.088713E+05  1.000000E+00  1.000002E-20  9.999838E-21  1.000002E-20    1 
 3.900000E+00  7.500000E-03  5.000000E-01  1.086857E+05  1.000000E+00  1.000002E-20  9.999837E-21  1.000002E-20    1 
 4.500000E+00  7.500000E-03  5.000000E-01  1.081291E+05  1.000000E+00  1.000001E-20  9.999835E-21  1.000001E-20    1 
 5.500000E+00  7.500000E-03  5.000000E-01  1.072026E+05  1.000000E+00  1.000001E-20  9.999830E-21  1.000001E-20    1 
 6.500000E+00  7.500000E-03  5.000000E-01  1.062770E+05  1.000000E+00  1.000001E-20  9.999826E-21  1.000001E-20    1 
 7.500000E+00  7.500000E-03  5.000000E-01  1.053520E+05  1.000000E+00  1.000000E-20  9.999822E-21  1.000000E-20    1 
 5.000000E-03  1.250000E-02  5.000000E-01  1.107528E+05  1.000000E+00  1.260841E-04  1.260823E-04  1.101314E-04    1 
 1.500000E-02  1.250000E-02  5.000000E-01  1.107475E+05  1.000000E+00  8.630211E-05  8.630084E-05  7.438435E-05    1 
 2.500000E-02  1.250000E-02  5.000000E-01  1.107407E+05  1.000000E+00  5.810312E-05  5.810223E-05  4.937319E-05    1 
 3.500000E-02  1.250000E-02  5.000000E-01  1.107335E+05  1.000000E+00  3.856008E-05  3.855947E-05  3.227594E-05    1 
 4.500000E-02  1.250000E-02  5.000000E-01  1.107262E+05  1.000000E+00  2.523704E-05  2.523663E-05  2.079028E-05    1 
 5.500000E-02  1.250000E-02  5.000000E-01  1.107188E+05  1.000000E+00  1.629732E-05  1.629704E-05  1.320287E-05    1 
 6.500000E-02  1.250000E-02  5.000000E-01  1.107114E+05  1.000000E+00  1.039157E-05  1.039138E-05  8.272451E-06    1 
 7.500000E-02  1.250000E-02  5.000000E-01  1.107040E+05  1.000000E+00  6.550618E-06  6.550498E-06  5.120901E-06    1 
 8.500000E-02  1.250000E-02  5.000000E-01  1.106966E+05  1.000000E+00  4.093303E-06  4.093225E-06  3.140982E-06    1 
 9.500000E-02  1.250000E-02  5.000000E-01  1.106892E+05  1.000000E+00  2.551169E-06  2.551119E-06  1.922308E-06    1 
 1.100000E-01  1.250000E-02  5.000000E-01  1.106781E+05  1.000000E+00  1.138587E-06  1.138564E-06  8.302761E-07    1 
 1.300000E-01  1.250000E-02  5.000000E-01  1.106632E+05  1.000000E+00  4.169834E-07  4.169744E-07  2.928410E-07    1 
 1.500000E-01  1.250000E-02  5.000000E-01  1.106484E+05  1.000000E+00  1.481088E-07  1.481055E-07  1.001030E-07    1 
 1.700000E-01  1.250000E-02  5.000000E-01  1.106336E+05  1.000000E+00  5.119569E-08  5.119447E-08  3.328447E-08    1 
 1.900000E-01  1.250000E-02  5.000000E-01  1.106188E+05  1.000000E+00  1.727570E-08  1.727527E-08  1.080063E-08    1 
 2.100000E-01  1.250000E-02  5.000000E-01  1.106040E+05  1.000000E+00  5.707240E-09  5.707091E-09  3.430576E-09    1 
 2.300000E-01  1.250000E-02  5.000000E-01  1.105892E+05  1.000000E+00  1.850729E-09  1.850678E-09  1.069493E-09    1 
 2.500000E-01  1.250000E-02  5.000000E-01  1.105744E+05  1.000000E+00  5.907208E-10  5.907040E-10  3.281623E-10    1 
 2.700000E-01  1.250000E-02  5.000000E-01  1.105596E+05  1.000000E+00  1.868153E-10  1.868098E-10  9.974447E-11    1 
 2.900000E-01  1.250000E-02  5.000000E-01  1.105448E+05  1.000000E+00  6.150583E-11  6.150392E-11  3.158024E-11    1 
 3.250000E-01  1.250000E-02  5.000000E-01  1.105189E+05  1.000000E+00  7.324675E-12  7.324434E-12  3.547372E-12    1 
 3.750000E-01  1.250000E-02  5.000000E-01  1.104819E+05  1.000000E+00  6.366837E-13  6.366614E-13  2.905622E-13    1 
 4.250000E-01  1.250000E-02  5.000000E-01  1.104449E+05  1.000000E+00  5.451421E-14  5.451219E-14  2.346298E-14    1 
 4.750000E-01  1.250000E-02  5.000000E-01  1.104079E+05  1.000000E+00  4.613929E-15  4.613748E-15  1.874122E-15    1 
 5.250000E-01  1.250000E-02  5.000000E-01  1.103709E+05  1.000000E+00  3.870805E-16  3.870645E-16  1.484751E-16    1 
 5.750000E-01  1.250000E-02  5.000000E-01  1.103339E+05  1.000000E+00  3.227082E-17  3.226941E-17  1.169970E-17    1 
 6.250000E-01  1.250000E-02  5.000000E-01  1.102969E+05  1.000000E+00  2.685365E-18  2.685242E-18  9.260641E-19    1 
 6.750000E-01  1.250000E-02  5.000000E-01  1.102600E+05  1.000000E+00  2.310353E-19  2.310245E-19  8.155145E-20    1 
 7.250000E-01  1.250000E-02  5.000000E-01  1.102230E+05  1.000000E+00  2.821366E-20  2.821256E-20  1.557436E-20    1 
 7.750000E-01  1.250000E-02  5.000000E-01  1.101861E+05  1.000000E+00  1.149773E-20  1.149747E-20  1.043350E-20    1 
 8.250000E-01  1.250000E-02  5.000000E-01  1.101491E+05  1.000000E+00  1.012300E-20  1.012281E-20  1.003369E-20    1 
 8.750000E-01  1.250000E-02  5.000000E-01  1.101122E+05  1.000000E+00  1.001011E-20  1.000993E-20  1.000264E-20    1 
 9.250000E-01  1.250000E-02  5.000000E-01  1.100752E+05  1.000000E+00  1.000085E-20  1.000067E-20  1.000023E-20    1 
 9.750000E-01  1.250000E-02  5.000000E-01  1.100383E+05  1.000000E+00  1.000009E-20  9.999912E-21  1.000004E-20    1 
 1.050000E+00  1.250000E-02  5.000000E-01  1.099829E+05  1.000000E+00  1.000003E-20  9.999845E-21  1.000002E-20    1 
 1.150000E+00  1.250000E-02  5.000000E-01  1.099091E+05  1.000000E+00  1.000002E-20  9.999843E-21  1.000002E-20    1 
 1.250000E+00  1.250000E-02  5.000000E-01  1.098353E+05  1.000000E+00  1.000002E-20  9.999842E-21  1.000002E-20    1 
 1.350000E+00  1.250000E-02  5.000000E-01  1.097615E+05  1.000000E+00  1.000002E-20  9.999842E-21  1.000002E-20    1 
 1.450000E+00  1.250000E-02  5.000000E-01  1.096878E+05  1.000000E+00  1.000002E-20  9.999842E-21  1.000002E-20    1 
 1.550000E+00  1.250000E-02  5.000000E-01  1.096140E+05  1.000000E+00  1.000002E-20  9.999841E-21  1.000002E-20    1 
 1.650000E+00  1.250000E-02  5.000000E-01  1.095403E+05  1.000000E+00  1.000002E-20  9.999841E-21  1.000002E-20    1 
 1.750000E+00  1.250000E-02  5.000000E-01  1.094666E+05  1.000000E+00  1.000002E-20  9.999841E-21  1.000002E-20    1 
 1.850000E+00  1.250000E-02  5.000000E-01  1.093930E+05  1.000000E+00  1.000002E-20  9.999840E-21  1.000002E-20    1 
 1.950000E+00  1.250000E-02  5.000000E-01  1.093193E+05  1.000000E+00  1.000002E-20  9.999840E-21  1.000002E-20    1 
 2.100000E+00  1.250000E-02  5.000000E-01  1.092089E+05  1.000000E+00  1.000002E-20  9.999840E-21  1.000002E-20    1 
 2.300000E+00  1.250000E-02  5.000000E-01  1.090617E+05  1.000000E+00  1.000002E-20  9.999839E-21  1.000002E-20    1 
 2.500000E+00  1.250000E-02  5.000000E-01  1.089146E+05  1.000000E+00  1.000002E-20  9.999838E-21  1.000002E-20    1 
 2.700000E+00  1.250000E-02  5.000000E-01  1.087676E+05  1.000000E+00  1.000002E-20  9.999838E-21  1.000002E-20    1 
 2.900000E+00  1.250000E-02  5.000000E-01  1.086207E+05  1.000000E+00  1.000002E-20  9.999837E-21  1.000002E-20    1 
 3.100000E+00  1.250000E-02  5.000000E-01  1.084738E+05  1.000000E+00  1.000002E-20  9.999836E-21  1.000002E-20    1 
 3.300000E+00  1.250000E-02  5.000000E-01  1.083270E+05  1.000000E+00  1.000002E-20  9.999836E-21  1.000002E-20    1 
 3.500000E+00  1.250000E-02  5.000000E-01  1.081802E+05  1.000000E+00  1.000001E-20  9.999835E-21  1.000001E-20    1 
 3.700000E+00  1.250000E-02  5.000000E-01  1.080336E+05  1.000000E+00  1.000001E-20  9.999834E-21  1.000001E-20    1 
 3.900000E+00  1.250000E-02  5.000000E-01  1.078869E+05  1.000000E+00  1.000001E-20  9.999834E-21  1.000001E-20    1 
 4.500000E+00  1.250000E-02  5.000000E-01  1.074472E+05  1.000000E+00  1.000001E-20  9.999832E-21  1.000001E-20    1 
 5.500000E+00  1.250000E-02  5.000000E-01  1.067156E+05  1.000000E+00  1.000001E-20  9.999828E-21  1.000001E-20    1 
 6.500000E+00  1.250000E-02  5.000000E-01  1.059848E+05  1.000000E+00  1.000000E-20  9.999825E-21  1.000000E-20    1 
 7.500000E+00  1.250000E-02  5.000000E-01  1.052546E+05  1.000000E+00  1.000000E-20  9.999822E-21  1.000000E-20    1 
 5.000000E-03  1.750000E-02  5.000000E-01  1.093554E+05  1.000000E+00  5.654982E-07  5.654888E-07  4.624792E-07    1 
 1.500000E-02  1.750000E-02  5.000000E-01  1.093519E+05  1.000000E+00  3.658912E-07  3.658849E-07  2.947602E-07    1 
 2.500000E-02  1.750000E-02  5.000000E-01  1.093470E+05  1.000000E+00  2.332039E-07  2.331998E-07  1.849317E-07    1 
 3.500000E-02  1.750000E-02  5.000000E-01  1.093416E+05  1.000000E+00  1.468544E-07  1.468517E-07  1.145553E-07    1 
 4.500000E-02  1.750000E-02  5.000000E-01  1.093361E+05  1.000000E+00  9.142346E-08  9.142173E-08  7.010466E-08    1 
 5.500000E-02  1.750000E-02  5.000000E-01  1.093304E+05  1.000000E+00  5.629640E-08  5.629530E-08  4.240861E-08    1 
 6.500000E-02  1.750000E-02  5.000000E-01  1.093248E+05  1.000000E+00  3.431380E-08  3.431311E-08  2.537853E-08    1 
 7.500000E-02  1.750000E-02  5.000000E-01  1.093191E+05  1.000000E+00  2.072944E-08  2.072902E-08  1.504458E-08    1 
 8.500000E-02  1.750000E-02  5.000000E-01  1.093135E+05  1.000000E+00  1.244870E-08  1.244844E-08  8.862979E-09    1 
 9.500000E-02  1.750000E-02  5.000000E-01  1.093078E+05  1.000000E+00  7.488111E-09  7.487949E-09  5.232848E-09    1 
 1.100000E-01  1.750000E-02  5.000000E-01  1.092994E+05  1.000000E+00  3.158498E-09  3.158426E-09  2.135472E-09    1 
 1.300000E-01  1.750000E-02  5.000000E-01  1.092880E+05  1.000000E+00  1.094445E-09  1.094419E-09  7.127567E-10    1 
 1.500000E-01  1.750000E-02  5.000000E-01  1.092767E+05  1.000000E+00  3.703579E-10  3.703487E-10  2.322096E-10    1 
 1.700000E-01  1.750000E-02  5.000000E-01  1.092654E+05  1.000000E+00  1.227180E-10  1.227148E-10  7.404969E-11    1 
 1.900000E-01  1.750000E-02  5.000000E-01  1.092541E+05  1.000000E+00  3.991262E-11  3.991154E-11  2.317308E-11    1 
 2.100000E-01  1.750000E-02  5.000000E-01  1.092428E+05  1.000000E+00  1.277021E-11  1.276985E-11  7.133102E-12    1 
 2.300000E-01  1.750000E-02  5.000000E-01  1.092315E+05  1.000000E+00  4.027783E-12  4.027664E-12  2.164374E-12    1 
 2.500000E-01  1.750000E-02  5.000000E-01  1.092202E+05  1.000000E+00  1.255139E-12  1.255100E-12  6.488249E-13    1 
 2.700000E-01  1.750000E-02  5.000000E-01  1.092089E+05  1.000000E+00  3.887639E-13  3.887514E-13  1.932876E-13    1 
 2.900000E-01  1.750000E-02  5.000000E-01  1.091976E+05  1.000000E+00  1.257477E-13  1.257435E-13  6.015994E-14    1 
 3.250000E-01  1.750000E-02  5.000000E-01  1.091779E+05  1.000000E+00  1.465989E-14  1.465937E-14  6.623356E-15    1 
 3.750000E-01  1.750000E-02  5.000000E-01  1.091496E+05  1.000000E+00  1.252861E-15  1.252815E-15  5.339545E-16    1 
 4.250000E-01  1.750000E-02  5.000000E-01  1.091214E+05  1.000000E+00  1.058978E-16  1.058936E-16  4.260755E-17    1 
 4.750000E-01  1.750000E-02  5.000000E-01  1.090932E+05  1.000000E+00  8.884818E-18  8.884447E-18  3.381702E-18    1 
 5.250000E-01  1.750000E-02  5.000000E-01  1.090649E+05  1.000000E+00  7.490384E-19  7.490057E-19  2.752857E-19    1 
 5.750000E-01  1.750000E-02  5.000000E-01  1.090367E+05  1.000000E+00  7.126409E-20  7.126107E-20  3.078442E-20    1 
 6.250000E-01  1.750000E-02  5.000000E-01  1.090085E+05  1.000000E+00  1.506030E-20  1.505987E-20  1.162276E-20    1 
 6.750000E-01  1.750000E-02  5.000000E-01  1.089803E+05  1.000000E+00  1.041686E-20  1.041666E-20  1.012643E-20    1 
 7.250000E-01  1.750000E-02  5.000000E-01  1.089521E+05  1.000000E+00  1.003430E-20  1.003411E-20  1.000985E-20    1 
 7.750000E-01  1.750000E-02  5.000000E-01  1.089239E+05  1.000000E+00  1.000283E-20  1.000265E-20  1.000078E-20    1 
 8.250000E-01  1.750000E-02  5.000000E-01  1.088957E+05  1.000000E+00  1.000025E-20  1.000007E-20  1.000008E-20    1 
 8.750000E-01  1.750000E-02  5.000000E-01  1.088675E+05  1.000000E+00  1.000004E-20  9.999857E-21  1.000002E-20    1 
 9.250000E-01  1.750000E-02  5.000000E-01  1.088394E+05  1.000000E+00  1.000002E-20  9.999839E-21  1.000002E-20    1 
 9.750000E-01  1.750000E-02  5.000000E-01  1.088112E+05  1.000000E+00  1.000002E-20  9.999838E-21  1.000002E-20    1 
 1.050000E+00  1.750000E-02  5.000000E-01  1.087689E+05  1.000000E+00  1.000002E-20  9.999838E-21  1.000002E-20    1 
 1.150000E+00  1.750000E-02  5.000000E-01  1.087126E+05  1.000000E+00  1.000002E-20  9.999837E-21  1.000002E-20    1 
 1.250000E+00  1.750000E-02  5.000000E-01  1.086563E+05  1.000000E+00  1.000002E-20  9.999837E-21  1.000002E-20    1 
 1.350000E+00  1.750000E-02  5.000000E-01  1.086001E+05  1.000000E+00  1.000002E-20  9.999837E-21  1.000002E-20    1 
 1.450000E+00  1.750000E-02  5.000000E-01  1.085438E+05  1.000000E+00  1.000002E-20  9.999837E-21  1.000002E-20    1 
 1.550000E+00  1.750000E-02  5.000000E-01  1.084876E+05  1.000000E+00  1.000002E-20  9.999836E-21  1.000002E-20    1 
 1.650000E+00  1.750000E-02  5.000000E-01  1.084314E+05  1.000000E+00  1.000002E-20  9.999836E-21  1.000002E-20    1 
 1.750000E+00  1.750000E-02  5.000000E-01  1.083752E+05  1.000000E+00  1.000002E-20  9.999836E-21  1.000002E-20    1 
 1.850000E+00  1.750000E-02  5.000000E-01  1.083191E+05  1.000000E+00  1.000002E-20  9.999835E-21  1.000002E-20    1 
 1.950000E+00  1.750000E-02  5.000000E-01  1.082629E+05  1.000000E+00  1.000002E-20  9.999835E-21  1.000002E-20    1 
 2.100000E+00  1.750000E-02  5.000000E-01  1.081787E+05  1.000000E+00  1.000001E-20  9.999835E-21  1.000001E-20    1 
 2.300000E+00  1.750000E-02  5.000000E-01  1.080665E+05  1.000000E+00  1.000001E-20  9.999834E-21  1.000001E-20    1 
 2.500000E+00  1.750000E-02  5.000000E-01  1.079544E+05  1.000000E+00  1.000001E-20  9.999834E-21  1.000001E-20    1 
 2.700000E+00  1.750000E-02  5.000000E-01  1.078424E+05  1.000000E+00  1.000001E-20  9.999833E-21  1.000001E-20    1 
 2.900000E+00  1.750000E-02  5.000000E-01  1.077304E+05  1.000000E+00  1.000001E-20  9.999833E-21  1.000001E-20    1 
 3.100000E+00  1.750000E-02  5.000000E-01  1.076185E+05  1.000000E+00  1.000001E-20  9.999832E-21  1.000001E-20    1 
 3.300000E+00  1.750000E-02  5.000000E-01  1.075066E+05  1.000000E+00  1.000001E-20  9.999832E-21  1.000001E-20    1 
 3.500000E+00  1.750000E-02  5.000000E-01  1.073948E+05  1.000000E+00  1.000001E-20  9.999831E-21  1.000001E-20    1 
 3.700000E+00  1.750000E-02  5.000000E-01  1.072831E+05  1.000000E+00  1.000001E-20  9.999831E-21  1.000001E-20    1 
 3.900000E+00  1.750000E-02  5.000000E-01  1.071714E+05  1.000000E+00  1.000001E-20  9.999830E-21  1.000001E-20    1 
 4.500000E+00  1.750000E-02  5.000000E-01  1.068365E+05  1.000000E+00  1.000001E-20  9.999829E-21  1.000001E-20    1 
 5.500000E+00  1.750000E-02  5.000000E-01  1.062794E+05  1.000000E+00  1.000001E-20  9.999826E-21  1.000001E-20    1 
 6.500000E+00  1.750000E-02  5.000000E-01  1.057231E+05  1.000000E+00  1.000000E-20  9.999824E-21  1.000000E-20    1 
 7.500000E+00  1.750000E-02  5.000000E-01  1.051674E+05  1.000000E+00  1.000000E-20  9.999821E-21  1.000000E-20    1 
 5.000000E-03  2.250000E-02  5.000000E-01  1.081803E+05  1.000000E+00  2.044416E-09  2.044377E-09  1.565879E-09    1 
 1.500000E-02  2.250000E-02  5.000000E-01  1.081781E+05  1.000000E+00  1.267549E-09  1.267524E-09  9.550961E-10    1 
 2.500000E-02  2.250000E-02  5.000000E-01  1.081746E+05  1.000000E+00  7.749943E-10  7.749788E-10  5.741675E-10    1 
 3.500000E-02  2.250000E-02  5.000000E-01  1.081707E+05  1.000000E+00  4.690078E-10  4.689982E-10  3.414516E-10    1 
 4.500000E-02  2.250000E-02  5.000000E-01  1.081667E+05  1.000000E+00  2.811202E-10  2.811143E-10  2.010085E-10    1 
 5.500000E-02  2.250000E-02  5.000000E-01  1.081625E+05  1.000000E+00  1.669834E-10  1.669798E-10  1.172051E-10    1 
 6.500000E-02  2.250000E-02  5.000000E-01  1.081584E+05  1.000000E+00  9.836286E-11  9.836068E-11  6.774022E-11    1 
 7.500000E-02  2.250000E-02  5.000000E-01  1.081542E+05  1.000000E+00  5.753534E-11  5.753403E-11  3.886038E-11    1 
 8.500000E-02  2.250000E-02  5.000000E-01  1.081500E+05  1.000000E+00  3.352446E-11  3.352368E-11  2.220223E-11    1 
 9.500000E-02  2.250000E-02  5.000000E-01  1.081458E+05  1.000000E+00  1.962908E-11  1.962861E-11  1.275561E-11    1 
 1.100000E-01  2.250000E-02  5.000000E-01  1.081396E+05  1.000000E+00  7.933687E-12  7.933490E-12  4.986924E-12    1 
 1.300000E-01  2.250000E-02  5.000000E-01  1.081312E+05  1.000000E+00  2.636601E-12  2.636533E-12  1.596583E-12    1 
 1.500000E-01  2.250000E-02  5.000000E-01  1.081229E+05  1.000000E+00  8.600949E-13  8.600716E-13  5.015578E-13    1 
 1.700000E-01  2.250000E-02  5.000000E-01  1.081145E+05  1.000000E+00  2.759947E-13  2.759869E-13  1.549508E-13    1 
 1.900000E-01  2.250000E-02  5.000000E-01  1.081062E+05  1.000000E+00  8.728938E-14  8.728681E-14  4.717432E-14    1 
 2.100000E-01  2.250000E-02  5.000000E-01  1.080978E+05  1.000000E+00  2.725850E-14  2.725767E-14  1.417983E-14    1 
 2.300000E-01  2.250000E-02  5.000000E-01  1.080895E+05  1.000000E+00  8.418774E-15  8.418505E-15  4.215316E-15    1 
 2.500000E-01  2.250000E-02  5.000000E-01  1.080812E+05  1.000000E+00  2.576435E-15  2.576349E-15  1.241663E-15    1 
 2.700000E-01  2.250000E-02  5.000000E-01  1.080728E+05  1.000000E+00  7.856459E-16  7.856188E-16  3.643707E-16    1 