TITLE = "  2.31481E-02 [d]"
VARIABLES="X [m]","Y [m]","Z [m]","Liquid Pressure [Pa]","Liquid Saturation","Total Tracer_conservative [M]","Total Tracer_decay [M]","Total Tracer_sorbing [M]","Material ID"
ZONE T="2.31481E-02", STRANDID=1, SOLUTIONTIME=2.31481E-02, I=58, J=38, K=1, DATAPACKING=POINT
 5.000000E-03  2.500000E-03  5.000000E-01  1.131223E+05  1.000000E+00  8.299624E-01  8.299618E-01  8.238746E-01    2 
 1.500000E-02  2.500000E-03  5.000000E-01  1.131118E+05  1.000000E+00  5.233413E-01  5.233405E-01  5.089133E-01    2 
 2.500000E-02  2.500000E-03  5.000000E-01  1.131013E+05  1.000000E+00  2.941917E-01  2.941911E-01  2.784368E-01    2 
 3.500000E-02  2.500000E-03  5.000000E-01  1.130909E+05  1.000000E+00  1.492055E-01  1.492051E-01  1.368010E-01    2 
 4.500000E-02  2.500000E-03  5.000000E-01  1.130804E+05  1.000000E+00  6.920046E-02  6.920026E-02  6.126674E-02    2 
 5.500000E-02  2.500000E-03  5.000000E-01  1.130699E+05  1.000000E+00  2.972917E-02  2.972907E-02  2.536117E-02    2 
 6.500000E-02  2.500000E-03  5.000000E-01  1.130594E+05  1.000000E+00  1.196711E-02  1.196707E-02  9.822511E-03    2 
 7.500000E-02  2.500000E-03  5.000000E-01  1.130490E+05  1.000000E+00  4.560406E-03  4.560389E-03  3.598009E-03    2 
 8.500000E-02  2.500000E-03  5.000000E-01  1.130385E+05  1.000000E+00  1.665318E-03  1.665311E-03  1.261960E-03    2 
 9.500000E-02  2.500000E-03  5.000000E-01  1.130280E+05  1.000000E+00  6.055339E-04  6.055312E-04  4.410056E-04    2 
 1.100000E-01  2.500000E-03  5.000000E-01  1.130123E+05  1.000000E+00  1.082108E-04  1.082103E-04  7.439843E-05    2 
 1.300000E-01  2.500000E-03  5.000000E-01  1.129914E+05  1.000000E+00  1.448026E-05  1.448018E-05  9.388664E-06    2 
 1.500000E-01  2.500000E-03  5.000000E-01  1.129705E+05  1.000000E+00  1.858043E-06  1.858032E-06  1.137511E-06    2 
 1.700000E-01  2.500000E-03  5.000000E-01  1.129496E+05  1.000000E+00  2.309557E-07  2.309543E-07  1.336457E-07    2 
 1.900000E-01  2.500000E-03  5.000000E-01  1.129287E+05  1.000000E+00  2.802759E-08  2.802740E-08  1.534354E-08    2 
 2.100000E-01  2.500000E-03  5.000000E-01  1.129077E+05  1.000000E+00  3.340879E-09  3.340855E-09  1.731588E-09    2 
 2.300000E-01  2.500000E-03  5.000000E-01  1.128868E+05  1.000000E+00  3.930188E-10  3.930157E-10  1.929840E-10    2 
 2.500000E-01  2.500000E-03  5.000000E-01  1.128659E+05  1.000000E+00  4.579811E-11  4.579773E-11  2.131542E-11    2 
 2.700000E-01  2.500000E-03  5.000000E-01  1.128450E+05  1.000000E+00  5.302020E-12  5.301974E-12  2.339681E-12    2 
 2.900000E-01  2.500000E-03  5.000000E-01  1.128241E+05  1.000000E+00  6.335986E-13  6.335927E-13  2.648083E-13    2 
 3.250000E-01  2.500000E-03  5.000000E-01  1.127875E+05  1.000000E+00  2.052399E-14  2.052378E-14  8.060631E-15    2 
 3.750000E-01  2.500000E-03  5.000000E-01  1.127353E+05  1.000000E+00  4.809939E-16  4.809889E-16  1.774635E-16    2 
 4.250000E-01  2.500000E-03  5.000000E-01  1.126830E+05  1.000000E+00  1.125484E-17  1.125472E-17  3.908014E-18    2 
 4.750000E-01  2.500000E-03  5.000000E-01  1.126308E+05  1.000000E+00  2.724645E-19  2.724613E-19  9.549868E-20    2 
 5.250000E-01  2.500000E-03  5.000000E-01  1.125786E+05  1.000000E+00  1.611940E-20  1.611928E-20  1.187345E-20    2 
 5.750000E-01  2.500000E-03  5.000000E-01  1.125264E+05  1.000000E+00  1.014260E-20  1.014256E-20  1.004105E-20    2 
 6.250000E-01  2.500000E-03  5.000000E-01  1.124743E+05  1.000000E+00  1.000335E-20  1.000332E-20  1.000093E-20    2 
 6.750000E-01  2.500000E-03  5.000000E-01  1.124221E+05  1.000000E+00  1.000011E-20  1.000008E-20  1.000005E-20    2 
 7.250000E-01  2.500000E-03  5.000000E-01  1.123700E+05  1.000000E+00  1.000004E-20  9.999999E-21  1.000003E-20    2 
 7.750000E-01  2.500000E-03  5.000000E-01  1.123178E+05  1.000000E+00  1.000003E-20  9.999997E-21  1.000003E-20    2 
 8.250000E-01  2.500000E-03  5.000000E-01  1.122657E+05  1.000000E+00  1.000003E-20  9.999997E-21  1.000003E-20    2 
 8.750000E-01  2.500000E-03  5.000000E-01  1.122136E+05  1.000000E+00  1.000003E-20  9.999997E-21  1.000003E-20    2 
 9.250000E-01  2.500000E-03  5.000000E-01  1.121616E+05  1.000000E+00  1.000003E-20  9.999997E-21  1.000003E-20    2 
 9.750000E-01  2.500000E-03  5.000000E-01  1.121095E+05  1.000000E+00  1.000003E-20  9.999996E-21  1.000003E-20    2 
 1.050000E+00  2.500000E-03  5.000000E-01  1.120314E+05  1.000000E+00  1.000003E-20  9.999996E-21  1.000003E-20    2 
 1.150000E+00  2.500000E-03  5.000000E-01  1.119274E+05  1.000000E+00  1.000003E-20  9.999996E-21  1.000003E-20    2 
 1.250000E+00  2.500000E-03  5.000000E-01  1.118234E+05  1.000000E+00  1.000003E-20  9.999995E-21  1.000003E-20    2 
 1.350000E+00  2.500000E-03  5.000000E-01  1.117194E+05  1.000000E+00  1.000003E-20  9.999995E-21  1.000003E-20    2 
 1.450000E+00  2.500000E-03  5.000000E-01  1.116156E+05  1.000000E+00  1.000003E-20  9.999994E-21  1.000003E-20    2 
 1.550000E+00  2.500000E-03  5.000000E-01  1.115117E+05  1.000000E+00  1.000003E-20  9.999994E-21  1.000003E-20    2 
 1.650000E+00  2.500000E-03  5.000000E-01  1.114079E+05  1.000000E+00  1.000003E-20  9.999993E-21  1.000003E-20    2 
 1.750000E+00  2.500000E-03  5.000000E-01  1.113042E+05  1.000000E+00  1.000003E-20  9.999993E-21  1.000003E-20    2 
 1.850000E+00  2.500000E-03  5.000000E-01  1.112005E+05  1.000000E+00  1.000003E-20  9.999992E-21  1.000003E-20    2 
 1.950000E+00  2.500000E-03  5.000000E-01  1.110969E+05  1.000000E+00  1.000003E-20  9.999992E-21  1.000003E-20    2 
 2.100000E+00  2.500000E-03  5.000000E-01  1.109416E+05  1.000000E+00  1.000003E-20  9.999991E-21  1.000003E-20    2 
 2.300000E+00  2.500000E-03  5.000000E-01  1.107346E+05  1.000000E+00  1.000003E-20  9.999990E-21  1.000003E-20    2 
 2.500000E+00  2.500000E-03  5.000000E-01  1.105278E+05  1.000000E+00  1.000003E-20  9.999989E-21  1.000003E-20    2 
 2.700000E+00  2.500000E-03  5.000000E-01  1.103212E+05  1.000000E+00  1.000002E-20  9.999988E-21  1.000002E-20    2 
 2.900000E+00  2.500000E-03  5.000000E-01  1.101148E+05  1.000000E+00  1.000002E-20  9.999988E-21  1.000002E-20    2 
 3.100000E+00  2.500000E-03  5.000000E-01  1.099086E+05  1.000000E+00  1.000002E-20  9.999987E-21  1.000002E-20    2 
 3.300000E+00  2.500000E-03  5.000000E-01  1.097025E+05  1.000000E+00  1.000002E-20  9.999986E-21  1.000002E-20    2 
 3.500000E+00  2.500000E-03  5.000000E-01  1.094966E+05  1.000000E+00  1.000002E-20  9.999985E-21  1.000002E-20    2 
 3.700000E+00  2.500000E-03  5.000000E-01  1.092908E+05  1.000000E+00  1.000002E-20  9.999984E-21  1.000002E-20    2 
 3.900000E+00  2.500000E-03  5.000000E-01  1.090851E+05  1.000000E+00  1.000002E-20  9.999983E-21  1.000002E-20    2 
 4.500000E+00  2.500000E-03  5.000000E-01  1.084686E+05  1.000000E+00  1.000002E-20  9.999980E-21  1.000002E-20    2 
 5.500000E+00  2.500000E-03  5.000000E-01  1.074439E+05  1.000000E+00  1.000001E-20  9.999975E-21  1.000001E-20    2 
 6.500000E+00  2.500000E-03  5.000000E-01  1.064213E+05  1.000000E+00  1.000001E-20  9.999971E-21  1.000001E-20    2 
 7.500000E+00  2.500000E-03  5.000000E-01  1.054000E+05  1.000000E+00  1.000000E-20  9.999966E-21  1.000000E-20    2 
 5.000000E-03  7.500000E-03  5.000000E-01  1.111430E+05  1.000000E+00  3.344321E-03  3.344314E-03  3.090865E-03    1 
 1.500000E-02  7.500000E-03  5.000000E-01  1.111357E+05  1.000000E+00  1.635546E-03  1.635541E-03  1.472165E-03    1 
 2.500000E-02  7.500000E-03  5.000000E-01  1.111277E+05  1.000000E+00  7.422688E-04  7.422666E-04  6.483420E-04    1 
 3.500000E-02  7.500000E-03  5.000000E-01  1.111197E+05  1.000000E+00  3.153920E-04  3.153910E-04  2.665687E-04    1 
 4.500000E-02  7.500000E-03  5.000000E-01  1.111117E+05  1.000000E+00  1.264172E-04  1.264168E-04  1.031709E-04    1 
 5.500000E-02  7.500000E-03  5.000000E-01  1.111036E+05  1.000000E+00  4.814695E-05  4.814676E-05  3.788281E-05    1 
 6.500000E-02  7.500000E-03  5.000000E-01  1.110956E+05  1.000000E+00  1.754163E-05  1.754155E-05  1.329204E-05    1 
 7.500000E-02  7.500000E-03  5.000000E-01  1.110876E+05  1.000000E+00  6.153298E-06  6.153271E-06  4.486821E-06    1 
 8.500000E-02  7.500000E-03  5.000000E-01  1.110796E+05  1.000000E+00  2.096718E-06  2.096708E-06  1.470221E-06    1 
 9.500000E-02  7.500000E-03  5.000000E-01  1.110716E+05  1.000000E+00  7.202937E-07  7.202901E-07  4.859122E-07    1 
 1.100000E-01  7.500000E-03  5.000000E-01  1.110595E+05  1.000000E+00  1.207289E-07  1.207282E-07  7.705923E-08    1 
 1.300000E-01  7.500000E-03  5.000000E-01  1.110435E+05  1.000000E+00  1.536340E-08  1.536331E-08  9.266223E-09    1 
 1.500000E-01  7.500000E-03  5.000000E-01  1.110274E+05  1.000000E+00  1.898148E-09  1.898136E-09  1.082735E-09    1 
 1.700000E-01  7.500000E-03  5.000000E-01  1.110114E+05  1.000000E+00  2.293384E-10  2.293369E-10  1.238152E-10    1 
 1.900000E-01  7.500000E-03  5.000000E-01  1.109954E+05  1.000000E+00  2.725114E-11  2.725094E-11  1.393389E-11    1 
 2.100000E-01  7.500000E-03  5.000000E-01  1.109794E+05  1.000000E+00  3.198771E-12  3.198745E-12  1.549910E-12    1 
 2.300000E-01  7.500000E-03  5.000000E-01  1.109633E+05  1.000000E+00  3.721794E-13  3.721763E-13  1.709469E-13    1 
 2.500000E-01  7.500000E-03  5.000000E-01  1.109473E+05  1.000000E+00  4.301531E-14  4.301493E-14  1.873759E-14    1 
 2.700000E-01  7.500000E-03  5.000000E-01  1.109313E+05  1.000000E+00  4.950320E-15  4.950274E-15  2.045363E-15    1 
 2.900000E-01  7.500000E-03  5.000000E-01  1.109153E+05  1.000000E+00  5.890242E-16  5.890183E-16  2.305807E-16    1 
 3.250000E-01  7.500000E-03  5.000000E-01  1.108873E+05  1.000000E+00  1.902496E-17  1.902475E-17  7.006697E-18    1 
 3.750000E-01  7.500000E-03  5.000000E-01  1.108473E+05  1.000000E+00  4.546716E-19  4.546665E-19  1.637266E-19    1 
 4.250000E-01  7.500000E-03  5.000000E-01  1.108073E+05  1.000000E+00  2.038150E-20  2.038134E-20  1.337268E-20    1 
 4.750000E-01  7.500000E-03  5.000000E-01  1.107673E+05  1.000000E+00  1.024213E-20  1.024209E-20  1.007395E-20    1 
 5.250000E-01  7.500000E-03  5.000000E-01  1.107274E+05  1.000000E+00  1.000567E-20  1.000563E-20  1.000165E-20    1 
 5.750000E-01  7.500000E-03  5.000000E-01  1.106874E+05  1.000000E+00  1.000016E-20  1.000012E-20  1.000006E-20    1 
 6.250000E-01  7.500000E-03  5.000000E-01  1.106475E+05  1.000000E+00  1.000003E-20  9.999993E-21  1.000003E-20    1 
 6.750000E-01  7.500000E-03  5.000000E-01  1.106076E+05  1.000000E+00  1.000003E-20  9.999990E-21  1.000003E-20    1 
 7.250000E-01  7.500000E-03  5.000000E-01  1.105677E+05  1.000000E+00  1.000003E-20  9.999990E-21  1.000003E-20    1 
 7.750000E-01  7.500000E-03  5.000000E-01  1.105279E+05  1.000000E+00  1.000003E-20  9.999989E-21  1.000003E-20    1 
 8.250000E-01  7.500000E-03  5.000000E-01  1.104880E+05  1.000000E+00  1.000003E-20  9.999989E-21  1.000003E-20    1 
 8.750000E-01  7.500000E-03  5.000000E-01  1.104482E+05  1.000000E+00  1.000003E-20  9.999989E-21  1.000003E-20    1 
 9.250000E-01  7.500000E-03  5.000000E-01  1.104084E+05  1.000000E+00  1.000002E-20  9.999989E-21  1.000002E-20    1 
 9.750000E-01  7.500000E-03  5.000000E-01  1.103686E+05  1.000000E+00  1.000002E-20  9.999989E-21  1.000002E-20    1 
 1.050000E+00  7.500000E-03  5.000000E-01  1.103089E+05  1.000000E+00  1.000002E-20  9.999988E-21  1.000002E-20    1 
 1.150000E+00  7.500000E-03  5.000000E-01  1.102294E+05  1.000000E+00  1.000002E-20  9.999988E-21  1.000002E-20    1 
 1.250000E+00  7.500000E-03  5.000000E-01  1.101500E+05  1.000000E+00  1.000002E-20  9.999988E-21  1.000002E-20    1 
 1.350000E+00  7.500000E-03  5.000000E-01  1.100706E+05  1.000000E+00  1.000002E-20  9.999987E-21  1.000002E-20    1 
 1.450000E+00  7.500000E-03  5.000000E-01  1.099913E+05  1.000000E+00  1.000002E-20  9.999987E-21  1.000002E-20    1 
 1.550000E+00  7.500000E-03  5.000000E-01  1.099121E+05  1.000000E+00  1.000002E-20  9.999987E-21  1.000002E-20    1 
 1.650000E+00  7.500000E-03  5.000000E-01  1.098329E+05  1.000000E+00  1.000002E-20  9.999986E-21  1.000002E-20    1 
 1.750000E+00  7.500000E-03  5.000000E-01  1.097538E+05  1.000000E+00  1.000002E-20  9.999986E-21  1.000002E-20    1 
 1.850000E+00  7.500000E-03  5.000000E-01  1.096748E+05  1.000000E+00  1.000002E-20  9.999986E-21  1.000002E-20    1 
 1.950000E+00  7.500000E-03  5.000000E-01  1.095958E+05  1.000000E+00  1.000002E-20  9.999985E-21  1.000002E-20    1 
 2.100000E+00  7.500000E-03  5.000000E-01  1.094774E+05  1.000000E+00  1.000002E-20  9.999985E-21  1.000002E-20    1 
 2.300000E+00  7.500000E-03  5.000000E-01  1.093197E+05  1.000000E+00  1.000002E-20  9.999984E-21  1.000002E-20    1 
 2.500000E+00  7.500000E-03  5.000000E-01  1.091623E+05  1.000000E+00  1.000002E-20  9.999983E-21  1.000002E-20    1 
 2.700000E+00  7.500000E-03  5.000000E-01  1.090051E+05  1.000000E+00  1.000002E-20  9.999983E-21  1.000002E-20    1 
 2.900000E+00  7.500000E-03  5.000000E-01  1.088481E+05  1.000000E+00  1.000002E-20  9.999982E-21  1.000002E-20    1 
 3.100000E+00  7.500000E-03  5.000000E-01  1.086913E+05  1.000000E+00  1.000002E-20  9.999981E-21  1.000002E-20    1 
 3.300000E+00  7.500000E-03  5.000000E-01  1.085347E+05  1.000000E+00  1.000002E-20  9.999980E-21  1.000002E-20    1 
 3.500000E+00  7.500000E-03  5.000000E-01  1.083783E+05  1.000000E+00  1.000002E-20  9.999980E-21  1.000002E-20    1 
 3.700000E+00  7.500000E-03  5.000000E-01  1.082220E+05  1.000000E+00  1.000002E-20  9.999979E-21  1.000002E-20    1 
 3.900000E+00  7.500000E-03  5.000000E-01  1.080659E+05  1.000000E+00  1.000001E-20  9.999978E-21  1.000001E-20    1 
 4.500000E+00  7.500000E-03  5.000000E-01  1.075981E+05  1.000000E+00  1.000001E-20  9.999976E-21  1.000001E-20    1 
 5.500000E+00  7.500000E-03  5.000000E-01  1.068218E+05  1.000000E+00  1.000001E-20  9.999973E-21  1.000001E-20    1 
 6.500000E+00  7.500000E-03  5.000000E-01  1.060479E+05  1.000000E+00  1.000001E-20  9.999969E-21  1.000001E-20    1 
 7.500000E+00  7.500000E-03  5.000000E-01  1.052755E+05  1.000000E+00  1.000000E-20  9.999966E-21  1.000000E-20    1 
 5.000000E-03  1.250000E-02  5.000000E-01  1.081309E+05  1.000000E+00  4.023044E-06  4.023031E-06  3.471656E-06    1 
 1.500000E-02  1.250000E-02  5.000000E-01  1.081274E+05  1.000000E+00  1.702677E-06  1.702671E-06  1.426411E-06    1 
 2.500000E-02  1.250000E-02  5.000000E-01  1.081233E+05  1.000000E+00  6.805261E-07  6.805237E-07  5.521536E-07    1 
 3.500000E-02  1.250000E-02  5.000000E-01  1.081191E+05  1.000000E+00  2.592322E-07  2.592312E-07  2.033161E-07    1 
 4.500000E-02  1.250000E-02  5.000000E-01  1.081149E+05  1.000000E+00  9.466180E-08  9.466140E-08  7.166110E-08    1 
 5.500000E-02  1.250000E-02  5.000000E-01  1.081107E+05  1.000000E+00  3.330946E-08  3.330931E-08  2.431224E-08    1 
 6.500000E-02  1.250000E-02  5.000000E-01  1.081065E+05  1.000000E+00  1.134922E-08  1.134917E-08  7.980461E-09    1 
 7.500000E-02  1.250000E-02  5.000000E-01  1.081023E+05  1.000000E+00  3.761910E-09  3.761891E-09  2.546966E-09    1 
 8.500000E-02  1.250000E-02  5.000000E-01  1.080981E+05  1.000000E+00  1.221890E-09  1.221884E-09  7.960843E-10    1 
 9.500000E-02  1.250000E-02  5.000000E-01  1.080939E+05  1.000000E+00  4.033986E-10  4.033963E-10  2.530142E-10    1 
 1.100000E-01  1.250000E-02  5.000000E-01  1.080876E+05  1.000000E+00  6.466505E-11  6.466466E-11  3.843190E-11    1 
 1.300000E-01  1.250000E-02  5.000000E-01  1.080792E+05  1.000000E+00  7.945035E-12  7.944984E-12  4.468031E-12    1 
 1.500000E-01  1.250000E-02  5.000000E-01  1.080708E+05  1.000000E+00  9.560540E-13  9.560473E-13  5.090709E-13    1 
 1.700000E-01  1.250000E-02  5.000000E-01  1.080624E+05  1.000000E+00  1.132734E-13  1.132726E-13  5.714074E-14    1 
 1.900000E-01  1.250000E-02  5.000000E-01  1.080540E+05  1.000000E+00  1.326924E-14  1.326913E-14  6.344524E-15    1 
 2.100000E-01  1.250000E-02  5.000000E-01  1.080456E+05  1.000000E+00  1.541622E-15  1.541609E-15  6.988887E-16    1 
 2.300000E-01  1.250000E-02  5.000000E-01  1.080372E+05  1.000000E+00  1.780179E-16  1.780163E-16  7.652576E-17    1 
 2.500000E-01  1.250000E-02  5.000000E-01  1.080288E+05  1.000000E+00  2.046642E-17  2.046622E-17  8.354301E-18    1 
 2.700000E-01  1.250000E-02  5.000000E-01  1.080204E+05  1.000000E+00  2.355043E-18  2.355019E-18  9.175655E-19    1 
 2.900000E-01  1.250000E-02  5.000000E-01  1.080120E+05  1.000000E+00  2.882536E-19  2.882506E-19  1.120480E-19    1 
 3.250000E-01  1.250000E-02  5.000000E-01  1.079973E+05  1.000000E+00  1.896346E-20  1.896333E-20  1.309062E-20    1 
 3.750000E-01  1.250000E-02  5.000000E-01  1.079764E+05  1.000000E+00  1.020935E-20  1.020931E-20  1.006784E-20    1 
 4.250000E-01  1.250000E-02  5.000000E-01  1.079554E+05  1.000000E+00  1.000490E-20  1.000486E-20  1.000150E-20    1 
 4.750000E-01  1.250000E-02  5.000000E-01  1.079345E+05  1.000000E+00  1.000013E-20  1.000009E-20  1.000005E-20    1 
 5.250000E-01  1.250000E-02  5.000000E-01  1.079136E+05  1.000000E+00  1.000002E-20  9.999980E-21  1.000001E-20    1 
 5.750000E-01  1.250000E-02  5.000000E-01  1.078927E+05  1.000000E+00  1.000001E-20  9.999978E-21  1.000001E-20    1 
 6.250000E-01  1.250000E-02  5.000000E-01  1.078718E+05  1.000000E+00  1.000001E-20  9.999977E-21  1.000001E-20    1 
 6.750000E-01  1.250000E-02  5.000000E-01  1.078509E+05  1.000000E+00  1.000001E-20  9.999977E-21  1.000001E-20    1 
 7.250000E-01  1.250000E-02  5.000000E-01  1.078301E+05  1.000000E+00  1.000001E-20  9.999977E-21  1.000001E-20    1 
 7.750000E-01  1.250000E-02  5.000000E-01  1.078092E+05  1.000000E+00  1.000001E-20  9.999977E-21  1.000001E-20    1 
 8.250000E-01  1.250000E-02  5.000000E-01  1.077884E+05  1.000000E+00  1.000001E-20  9.999977E-21  1.000001E-20    1 
 8.750000E-01  1.250000E-02  5.000000E-01  1.077676E+05  1.000000E+00  1.000001E-20  9.999977E-21  1.000001E-20    1 
 9.250000E-01  1.250000E-02  5.000000E-01  1.077467E+05  1.000000E+00  1.000001E-20  9.999977E-21  1.000001E-20    1 
 9.750000E-01  1.250000E-02  5.000000E-01  1.077260E+05  1.000000E+00  1.000001E-20  9.999977E-21  1.000001E-20    1 
 1.050000E+00  1.250000E-02  5.000000E-01  1.076948E+05  1.000000E+00  1.000001E-20  9.999977E-21  1.000001E-20    1 
 1.150000E+00  1.250000E-02  5.000000E-01  1.076533E+05  1.000000E+00  1.000001E-20  9.999976E-21  1.000001E-20    1 
 1.250000E+00  1.250000E-02  5.000000E-01  1.076118E+05  1.000000E+00  1.000001E-20  9.999976E-21  1.000001E-20    1 
 1.350000E+00  1.250000E-02  5.000000E-01  1.075704E+05  1.000000E+00  1.000001E-20  9.999976E-21  1.000001E-20    1 
 1.450000E+00  1.250000E-02  5.000000E-01  1.075290E+05  1.000000E+00  1.000001E-20  9.999976E-21  1.000001E-20    1 
 1.550000E+00  1.250000E-02  5.000000E-01  1.074877E+05  1.000000E+00  1.000001E-20  9.999976E-21  1.000001E-20    1 
 1.650000E+00  1.250000E-02  5.000000E-01  1.074464E+05  1.000000E+00  1.000001E-20  9.999976E-21  1.000001E-20    1 
 1.750000E+00  1.250000E-02  5.000000E-01  1.074052E+05  1.000000E+00  1.000001E-20  9.999975E-21  1.000001E-20    1 
 1.850000E+00  1.250000E-02  5.000000E-01  1.073640E+05  1.000000E+00  1.000001E-20  9.999975E-21  1.000001E-20    1 
 1.950000E+00  1.250000E-02  5.000000E-01  1.073229E+05  1.000000E+00  1.000001E-20  9.999975E-21  1.000001E-20    1 
 2.100000E+00  1.250000E-02  5.000000E-01  1.072613E+05  1.000000E+00  1.000001E-20  9.999975E-21  1.000001E-20    1 
 2.300000E+00  1.250000E-02  5.000000E-01  1.071793E+05  1.000000E+00  1.000001E-20  9.999974E-21  1.000001E-20    1 
 2.500000E+00  1.250000E-02  5.000000E-01  1.070974E+05  1.000000E+00  1.000001E-20  9.999974E-21  1.000001E-20    1 
 2.700000E+00  1.250000E-02  5.000000E-01  1.070158E+05  1.000000E+00  1.000001E-20  9.999974E-21  1.000001E-20    1 
 2.900000E+00  1.250000E-02  5.000000E-01  1.069342E+05  1.000000E+00  1.000001E-20  9.999973E-21  1.000001E-20    1 
 3.100000E+00  1.250000E-02  5.000000E-01  1.068529E+05  1.000000E+00  1.000001E-20  9.999973E-21  1.000001E-20    1 
 3.300000E+00  1.250000E-02  5.000000E-01  1.067716E+05  1.000000E+00  1.000001E-20  9.999972E-21  1.000001E-20    1 
 3.500000E+00  1.250000E-02  5.000000E-01  1.066906E+05  1.000000E+00  1.000001E-20  9.999972E-21  1.000001E-20    1 
 3.700000E+00  1.250000E-02  5.000000E-01  1.066096E+05  1.000000E+00  1.000001E-20  9.999972E-21  1.000001E-20    1 
 3.900000E+00  1.250000E-02  5.000000E-01  1.065288E+05  1.000000E+00  1.000001E-20  9.999971E-21  1.000001E-20    1 
 4.500000E+00  1.250000E-02  5.000000E-01  1.062866E+05  1.000000E+00  1.000001E-20  9.999970E-21  1.000001E-20    1 
 5.500000E+00  1.250000E-02  5.000000E-01  1.058856E+05  1.000000E+00  1.000000E-20  9.999968E-21  1.000000E-20    1 
 6.500000E+00  1.250000E-02  5.000000E-01  1.054864E+05  1.000000E+00  1.000000E-20  9.999967E-21  1.000000E-20    1 
 7.500000E+00  1.250000E-02  5.000000E-01  1.050884E+05  1.000000E+00  1.000000E-20  9.999965E-21  1.000000E-20    1 
 5.000000E-03  1.750000E-02  5.000000E-01  1.063989E+05  1.000000E+00  3.614729E-09  3.614716E-09  2.916345E-09    1 
 1.500000E-02  1.750000E-02  5.000000E-01  1.063974E+05  1.000000E+00  1.388557E-09  1.388551E-09  1.085333E-09    1 
 2.500000E-02  1.750000E-02  5.000000E-01  1.063955E+05  1.000000E+00  5.090527E-10  5.090506E-10  3.848476E-10    1 
 3.500000E-02  1.750000E-02  5.000000E-01  1.063936E+05  1.000000E+00  1.798758E-10  1.798750E-10  1.313510E-10    1 
 4.500000E-02  1.750000E-02  5.000000E-01  1.063916E+05  1.000000E+00  6.156350E-11  6.156321E-11  4.337697E-11    1 
 5.500000E-02  1.750000E-02  5.000000E-01  1.063896E+05  1.000000E+00  2.049317E-11  2.049307E-11  1.392124E-11    1 
 6.500000E-02  1.750000E-02  5.000000E-01  1.063877E+05  1.000000E+00  6.659785E-12  6.659750E-12  4.359286E-12    1 
 7.500000E-02  1.750000E-02  5.000000E-01  1.063857E+05  1.000000E+00  2.120644E-12  2.120632E-12  1.336990E-12    1 
 8.500000E-02  1.750000E-02  5.000000E-01  1.063837E+05  1.000000E+00  6.657635E-13  6.657595E-13  4.041050E-13    1 
 9.500000E-02  1.750000E-02  5.000000E-01  1.063817E+05  1.000000E+00  2.136723E-13  2.136710E-13  1.249114E-13    1 
 1.100000E-01  1.750000E-02  5.000000E-01  1.063788E+05  1.000000E+00  3.319583E-14  3.319561E-14  1.840792E-14    1 
 1.300000E-01  1.750000E-02  5.000000E-01  1.063748E+05  1.000000E+00  3.979889E-15  3.979861E-15  2.090347E-15    1 
 1.500000E-01  1.750000E-02  5.000000E-01  1.063709E+05  1.000000E+00  4.702884E-16  4.702848E-16  2.340683E-16    1 
 1.700000E-01  1.750000E-02  5.000000E-01  1.063669E+05  1.000000E+00  5.497910E-17  5.497865E-17  2.594516E-17    1 
 1.900000E-01  1.750000E-02  5.000000E-01  1.063630E+05  1.000000E+00  6.387154E-18  6.387099E-18  2.863625E-18    1 
 2.100000E-01  1.750000E-02  5.000000E-01  1.063590E+05  1.000000E+00  7.458274E-19  7.458206E-19  3.223073E-19    1 
 2.300000E-01  1.750000E-02  5.000000E-01  1.063551E+05  1.000000E+00  9.453730E-20  9.453645E-20  4.402539E-20    1 
 2.500000E-01  1.750000E-02  5.000000E-01  1.063512E+05  1.000000E+00  1.967872E-20  1.967858E-20  1.369838E-20    1 
 2.700000E-01  1.750000E-02  5.000000E-01  1.063472E+05  1.000000E+00  1.110680E-20  1.110675E-20  1.040134E-20    1 
 2.900000E-01  1.750000E-02  5.000000E-01  1.063433E+05  1.000000E+00  1.013111E-20  1.013107E-20  1.004506E-20    1 
 3.250000E-01  1.750000E-02  5.000000E-01  1.063364E+05  1.000000E+00  1.000422E-20  1.000419E-20  1.000137E-20    1 
 3.750000E-01  1.750000E-02  5.000000E-01  1.063266E+05  1.000000E+00  1.000010E-20  1.000007E-20  1.000004E-20    1 
 4.250000E-01  1.750000E-02  5.000000E-01  1.063167E+05  1.000000E+00  1.000001E-20  9.999973E-21  1.000001E-20    1 
 4.750000E-01  1.750000E-02  5.000000E-01  1.063069E+05  1.000000E+00  1.000001E-20  9.999970E-21  1.000001E-20    1 
 5.250000E-01  1.750000E-02  5.000000E-01  1.062971E+05  1.000000E+00  1.000001E-20  9.999970E-21  1.000001E-20    1 
 5.750000E-01  1.750000E-02  5.000000E-01  1.062873E+05  1.000000E+00  1.000001E-20  9.999970E-21  1.000001E-20    1 
 6.250000E-01  1.750000E-02  5.000000E-01  1.062775E+05  1.000000E+00  1.000001E-20  9.999970E-21  1.000001E-20    1 
 6.750000E-01  1.750000E-02  5.000000E-01  1.062677E+05  1.000000E+00  1.000001E-20  9.999970E-21  1.000001E-20    1 
 7.250000E-01  1.750000E-02  5.000000E-01  1.062580E+05  1.000000E+00  1.000001E-20  9.999970E-21  1.000001E-20    1 
 7.750000E-01  1.750000E-02  5.000000E-01  1.062482E+05  1.000000E+00  1.000001E-20  9.999970E-21  1.000001E-20    1 
 8.250000E-01  1.750000E-02  5.000000E-01  1.062384E+05  1.000000E+00  1.000001E-20  9.999970E-21  1.000001E-20    1 
 8.750000E-01  1.750000E-02  5.000000E-01  1.062287E+05  1.000000E+00  1.000001E-20  9.999970E-21  1.000001E-20    1 
 9.250000E-01  1.750000E-02  5.000000E-01  1.062189E+05  1.000000E+00  1.000001E-20  9.999970E-21  1.000001E-20    1 
 9.750000E-01  1.750000E-02  5.000000E-01  1.062092E+05  1.000000E+00  1.000001E-20  9.999970E-21  1.000001E-20    1 
 1.050000E+00  1.750000E-02  5.000000E-01  1.061946E+05  1.000000E+00  1.000001E-20  9.999970E-21  1.000001E-20    1 
 1.150000E+00  1.750000E-02  5.000000E-01  1.061752E+05  1.000000E+00  1.000001E-20  9.999970E-21  1.000001E-20    1 
 1.250000E+00  1.750000E-02  5.000000E-01  1.061558E+05  1.000000E+00  1.000001E-20  9.999970E-21  1.000001E-20    1 
 1.350000E+00  1.750000E-02  5.000000E-01  1.061364E+05  1.000000E+00  1.000001E-20  9.999970E-21  1.000001E-20    1 
 1.450000E+00  1.750000E-02  5.000000E-01  1.061170E+05  1.000000E+00  1.000001E-20  9.999970E-21  1.000001E-20    1 
 1.550000E+00  1.750000E-02  5.000000E-01  1.060977E+05  1.000000E+00  1.000001E-20  9.999969E-21  1.000001E-20    1 
 1.650000E+00  1.750000E-02  5.000000E-01  1.060784E+05  1.000000E+00  1.000001E-20  9.999969E-21  1.000001E-20    1 
 1.750000E+00  1.750000E-02  5.000000E-01  1.060592E+05  1.000000E+00  1.000001E-20  9.999969E-21  1.000001E-20    1 
 1.850000E+00  1.750000E-02  5.000000E-01  1.060399E+05  1.000000E+00  1.000001E-20  9.999969E-21  1.000001E-20    1 
 1.950000E+00  1.750000E-02  5.000000E-01  1.060207E+05  1.000000E+00  1.000001E-20  9.999969E-21  1.000001E-20    1 
 2.100000E+00  1.750000E-02  5.000000E-01  1.059919E+05  1.000000E+00  1.000000E-20  9.999969E-21  1.000000E-20    1 
 2.300000E+00  1.750000E-02  5.000000E-01  1.059536E+05  1.000000E+00  1.000000E-20  9.999969E-21  1.000000E-20    1 
 2.500000E+00  1.750000E-02  5.000000E-01  1.059154E+05  1.000000E+00  1.000000E-20  9.999969E-21  1.000000E-20    1 
 2.700000E+00  1.750000E-02  5.000000E-01  1.058773E+05  1.000000E+00  1.000000E-20  9.999968E-21  1.000000E-20    1 
 2.900000E+00  1.750000E-02  5.000000E-01  1.058393E+05  1.000000E+00  1.000000E-20  9.999968E-21  1.000000E-20    1 
 3.100000E+00  1.750000E-02  5.000000E-01  1.058014E+05  1.000000E+00  1.000000E-20  9.999968E-21  1.000000E-20    1 
 3.300000E+00  1.750000E-02  5.000000E-01  1.057636E+05  1.000000E+00  1.000000E-20  9.999968E-21  1.000000E-20    1 
 3.500000E+00  1.750000E-02  5.000000E-01  1.057258E+05  1.000000E+00  1.000000E-20  9.999968E-21  1.000000E-20    1 
 3.700000E+00  1.750000E-02  5.000000E-01  1.056881E+05  1.000000E+00  1.000000E-20  9.999968E-21  1.000000E-20    1 
 3.900000E+00  1.750000E-02  5.000000E-01  1.056505E+05  1.000000E+00  1.000000E-20  9.999967E-21  1.000000E-20    1 
 4.500000E+00  1.750000E-02  5.000000E-01  1.055379E+05  1.000000E+00  1.000000E-20  9.999967E-21  1.000000E-20    1 
 5.500000E+00  1.750000E-02  5.000000E-01  1.053516E+05  1.000000E+00  1.000000E-20  9.999966E-21  1.000000E-20    1 
 6.500000E+00  1.750000E-02  5.000000E-01  1.051663E+05  1.000000E+00  1.000000E-20  9.999965E-21  1.000000E-20    1 
 7.500000E+00  1.750000E-02  5.000000E-01  1.049817E+05  1.000000E+00  1.000000E-20  9.999964E-21  1.000000E-20    1 
 5.000000E-03  2.250000E-02  5.000000E-01  1.055457E+05  1.000000E+00  2.691783E-12  2.691771E-12  2.031960E-12    1 
 1.500000E-02  2.250000E-02  5.000000E-01  1.055451E+05  1.000000E+00  9.647827E-13  9.647784E-13  7.045718E-13    1 
 2.500000E-02  2.250000E-02  5.000000E-01  1.055443E+05  1.000000E+00  3.324067E-13  3.324051E-13  2.345785E-13    1 
 3.500000E-02  2.250000E-02  5.000000E-01  1.055434E+05  1.000000E+00  1.112686E-13  1.112681E-13  7.580303E-14    1 
 4.500000E-02  2.250000E-02  5.000000E-01  1.055426E+05  1.000000E+00  3.634379E-14  3.634360E-14  2.388401E-14    1 
 5.500000E-02  2.250000E-02  5.000000E-01  1.055417E+05  1.000000E+00  1.162321E-14  1.162314E-14  7.364120E-15    1 
 6.500000E-02  2.250000E-02  5.000000E-01  1.055408E+05  1.000000E+00  3.650694E-15  3.650673E-15  2.229026E-15    1 
 7.500000E-02  2.250000E-02  5.000000E-01  1.055400E+05  1.000000E+00  1.129441E-15  1.129434E-15  6.643873E-16    1 
 8.500000E-02  2.250000E-02  5.000000E-01  1.055391E+05  1.000000E+00  3.460719E-16  3.460697E-16  1.960626E-16    1 
 9.500000E-02  2.250000E-02  5.000000E-01  1.055382E+05  1.000000E+00  1.088658E-16  1.088651E-16  5.942502E-17    1 
 1.100000E-01  2.250000E-02  5.000000E-01  1.055369E+05  1.000000E+00  1.655430E-17  1.655418E-17  8.582146E-18    1 
 1.300000E-01  2.250000E-02  5.000000E-01  1.055352E+05  1.000000E+00  1.960082E-18  1.960067E-18  9.676974E-19    1 
 1.500000E-01  2.250000E-02  5.000000E-01  1.055335E+05  1.000000E+00  2.375749E-19  2.375729E-19  1.159669E-19    1 
 1.700000E-01  2.250000E-02  5.000000E-01  1.055318E+05  1.000000E+00  3.635756E-20  3.635729E-20  2.163986E-20    1 
 1.900000E-01  2.250000E-02  5.000000E-01  1.055300E+05  1.000000E+00  1.303810E-20  1.303803E-20  1.127300E-20    1 
 2.100000E-01  2.250000E-02  5.000000E-01  1.055283E+05  1.000000E+00  1.034897E-20  1.034893E-20  1.013873E-20    1 
 2.300000E-01  2.250000E-02  5.000000E-01  1.055266E+05  1.000000E+00  1.003996E-20  1.003993E-20  1.001507E-20    1 
 2.500000E-01  2.250000E-02  5.000000E-01  1.055249E+05  1.000000E+00  1.000457E-20  1.000453E-20  1.000164E-20    1 
 2.700000E-01  2.250000E-02  5.000000E-01  1.055232E+05  1.000000E+00  1.000052E-20  1.000049E-20  1.000018E-20    1 