TITLE = "   2.3148E-02 [d]"
VARIABLES="X [m]","Y [m]","Z [m]","qlx [m/d]","qly [m/d]","qlz [m/d]","Material_ID"
ZONE T= "  2.31481E-02", I=   58, J=   38, K=    1, DATAPACKING=POINT
 5.000000E-03  2.500000E-03  5.000000E-01  2.475620E-04  7.682163E-09  0.000000E+00    2 
 1.500000E-02  2.500000E-03  5.000000E-01  2.475466E-04  7.669877E-09  0.000000E+00    2 
 2.500000E-02  2.500000E-03  5.000000E-01  2.475313E-04  7.660113E-09  0.000000E+00    2 
 3.500000E-02  2.500000E-03  5.000000E-01  2.475160E-04  7.650596E-09  0.000000E+00    2 
 4.500000E-02  2.500000E-03  5.000000E-01  2.475007E-04  7.641106E-09  0.000000E+00    2 
 5.500000E-02  2.500000E-03  5.000000E-01  2.474854E-04  7.631619E-09  0.000000E+00    2 
 6.500000E-02  2.500000E-03  5.000000E-01  2.474702E-04  7.622132E-09  0.000000E+00    2 
 7.500000E-02  2.500000E-03  5.000000E-01  2.474549E-04  7.612644E-09  0.000000E+00    2 
 8.500000E-02  2.500000E-03  5.000000E-01  2.474397E-04  7.603156E-09  0.000000E+00    2 
 9.500000E-02  2.500000E-03  5.000000E-01  2.474245E-04  7.593668E-09  0.000000E+00    2 
 1.100000E-01  2.500000E-03  5.000000E-01  2.474018E-04  7.579434E-09  0.000000E+00    2 
 1.300000E-01  2.500000E-03  5.000000E-01  2.473715E-04  7.560454E-09  0.000000E+00    2 
 1.500000E-01  2.500000E-03  5.000000E-01  2.473413E-04  7.541473E-09  0.000000E+00    2 
 1.700000E-01  2.500000E-03  5.000000E-01  2.473111E-04  7.522489E-09  0.000000E+00    2 
 1.900000E-01  2.500000E-03  5.000000E-01  2.472811E-04  7.503504E-09  0.000000E+00    2 
 2.100000E-01  2.500000E-03  5.000000E-01  2.472511E-04  7.484517E-09  0.000000E+00    2 
 2.300000E-01  2.500000E-03  5.000000E-01  2.472212E-04  7.465528E-09  0.000000E+00    2 
 2.500000E-01  2.500000E-03  5.000000E-01  2.471913E-04  7.446538E-09  0.000000E+00    2 
 2.700000E-01  2.500000E-03  5.000000E-01  2.471616E-04  7.427546E-09  0.000000E+00    2 
 2.900000E-01  2.500000E-03  5.000000E-01  2.471319E-04  7.408552E-09  0.000000E+00    2 
 3.250000E-01  2.500000E-03  5.000000E-01  2.470802E-04  7.375309E-09  0.000000E+00    2 
 3.750000E-01  2.500000E-03  5.000000E-01  2.470066E-04  7.327808E-09  0.000000E+00    2 
 4.250000E-01  2.500000E-03  5.000000E-01  2.469335E-04  7.280297E-09  0.000000E+00    2 
 4.750000E-01  2.500000E-03  5.000000E-01  2.468609E-04  7.232775E-09  0.000000E+00    2 
 5.250000E-01  2.500000E-03  5.000000E-01  2.467887E-04  7.185242E-09  0.000000E+00    2 
 5.750000E-01  2.500000E-03  5.000000E-01  2.467170E-04  7.137698E-09  0.000000E+00    2 
 6.250000E-01  2.500000E-03  5.000000E-01  2.466458E-04  7.090144E-09  0.000000E+00    2 
 6.750000E-01  2.500000E-03  5.000000E-01  2.465750E-04  7.042579E-09  0.000000E+00    2 
 7.250000E-01  2.500000E-03  5.000000E-01  2.465048E-04  6.995004E-09  0.000000E+00    2 
 7.750000E-01  2.500000E-03  5.000000E-01  2.464350E-04  6.947419E-09  0.000000E+00    2 
 8.250000E-01  2.500000E-03  5.000000E-01  2.463656E-04  6.899823E-09  0.000000E+00    2 
 8.750000E-01  2.500000E-03  5.000000E-01  2.462967E-04  6.852217E-09  0.000000E+00    2 
 9.250000E-01  2.500000E-03  5.000000E-01  2.462283E-04  6.804601E-09  0.000000E+00    2 
 9.750000E-01  2.500000E-03  5.000000E-01  2.461604E-04  6.756975E-09  0.000000E+00    2 
 1.050000E+00  2.500000E-03  5.000000E-01  2.460596E-04  6.685521E-09  0.000000E+00    2 
 1.150000E+00  2.500000E-03  5.000000E-01  2.459265E-04  6.590209E-09  0.000000E+00    2 
 1.250000E+00  2.500000E-03  5.000000E-01  2.457954E-04  6.494858E-09  0.000000E+00    2 
 1.350000E+00  2.500000E-03  5.000000E-01  2.456661E-04  6.399470E-09  0.000000E+00    2 
 1.450000E+00  2.500000E-03  5.000000E-01  2.455388E-04  6.304043E-09  0.000000E+00    2 
 1.550000E+00  2.500000E-03  5.000000E-01  2.454133E-04  6.208580E-09  0.000000E+00    2 
 1.650000E+00  2.500000E-03  5.000000E-01  2.452897E-04  6.113080E-09  0.000000E+00    2 
 1.750000E+00  2.500000E-03  5.000000E-01  2.451680E-04  6.017544E-09  0.000000E+00    2 
 1.850000E+00  2.500000E-03  5.000000E-01  2.450482E-04  5.921972E-09  0.000000E+00    2 
 1.950000E+00  2.500000E-03  5.000000E-01  2.449303E-04  5.826366E-09  0.000000E+00    2 
 2.100000E+00  2.500000E-03  5.000000E-01  2.447578E-04  5.682906E-09  0.000000E+00    2 
 2.300000E+00  2.500000E-03  5.000000E-01  2.445334E-04  5.491493E-09  0.000000E+00    2 
 2.500000E+00  2.500000E-03  5.000000E-01  2.443167E-04  5.299951E-09  0.000000E+00    2 
 2.700000E+00  2.500000E-03  5.000000E-01  2.441076E-04  5.108285E-09  0.000000E+00    2 
 2.900000E+00  2.500000E-03  5.000000E-01  2.439061E-04  4.916500E-09  0.000000E+00    2 
 3.100000E+00  2.500000E-03  5.000000E-01  2.437123E-04  4.724601E-09  0.000000E+00    2 
 3.300000E+00  2.500000E-03  5.000000E-01  2.435262E-04  4.532592E-09  0.000000E+00    2 
 3.500000E+00  2.500000E-03  5.000000E-01  2.433477E-04  4.340477E-09  0.000000E+00    2 
 3.700000E+00  2.500000E-03  5.000000E-01  2.431770E-04  4.148262E-09  0.000000E+00    2 
 3.900000E+00  2.500000E-03  5.000000E-01  2.430139E-04  3.955951E-09  0.000000E+00    2 
 4.500000E+00  2.500000E-03  5.000000E-01  2.425941E-04  3.378741E-09  0.000000E+00    2 
 5.500000E+00  2.500000E-03  5.000000E-01  2.420107E-04  2.414775E-09  0.000000E+00    2 
 6.500000E+00  2.500000E-03  5.000000E-01  2.416213E-04  1.449420E-09  0.000000E+00    2 
 7.500000E+00  2.500000E-03  5.000000E-01  2.414265E-04  4.832001E-10  0.000000E+00    2 
 5.000000E-03  7.500000E-03  5.000000E-01  7.088512E-12  6.763732E-09  0.000000E+00    1 
 1.500000E-02  7.500000E-03  5.000000E-01  7.403415E-12  6.753861E-09  0.000000E+00    1 
 2.500000E-02  7.500000E-03  5.000000E-01  7.749012E-12  6.745240E-09  0.000000E+00    1 
 3.500000E-02  7.500000E-03  5.000000E-01  7.782695E-12  6.736772E-09  0.000000E+00    1 
 4.500000E-02  7.500000E-03  5.000000E-01  7.785709E-12  6.728324E-09  0.000000E+00    1 
 5.500000E-02  7.500000E-03  5.000000E-01  7.785411E-12  6.719878E-09  0.000000E+00    1 
 6.500000E-02  7.500000E-03  5.000000E-01  7.784726E-12  6.711432E-09  0.000000E+00    1 
 7.500000E-02  7.500000E-03  5.000000E-01  7.783995E-12  6.702986E-09  0.000000E+00    1 
 8.500000E-02  7.500000E-03  5.000000E-01  7.783258E-12  6.694540E-09  0.000000E+00    1 
 9.500000E-02  7.500000E-03  5.000000E-01  7.782522E-12  6.686094E-09  0.000000E+00    1 
 1.100000E-01  7.500000E-03  5.000000E-01  7.781418E-12  6.673425E-09  0.000000E+00    1 
 1.300000E-01  7.500000E-03  5.000000E-01  7.779950E-12  6.656533E-09  0.000000E+00    1 
 1.500000E-01  7.500000E-03  5.000000E-01  7.778485E-12  6.639641E-09  0.000000E+00    1 
 1.700000E-01  7.500000E-03  5.000000E-01  7.777024E-12  6.622748E-09  0.000000E+00    1 
 1.900000E-01  7.500000E-03  5.000000E-01  7.775567E-12  6.605855E-09  0.000000E+00    1 
 2.100000E-01  7.500000E-03  5.000000E-01  7.774114E-12  6.588962E-09  0.000000E+00    1 
 2.300000E-01  7.500000E-03  5.000000E-01  7.772664E-12  6.572069E-09  0.000000E+00    1 
 2.500000E-01  7.500000E-03  5.000000E-01  7.771218E-12  6.555176E-09  0.000000E+00    1 
 2.700000E-01  7.500000E-03  5.000000E-01  7.769775E-12  6.538282E-09  0.000000E+00    1 
 2.900000E-01  7.500000E-03  5.000000E-01  7.768336E-12  6.521388E-09  0.000000E+00    1 
 3.250000E-01  7.500000E-03  5.000000E-01  7.765830E-12  6.491824E-09  0.000000E+00    1 
 3.750000E-01  7.500000E-03  5.000000E-01  7.762265E-12  6.449588E-09  0.000000E+00    1 
 4.250000E-01  7.500000E-03  5.000000E-01  7.758723E-12  6.407350E-09  0.000000E+00    1 
 4.750000E-01  7.500000E-03  5.000000E-01  7.755204E-12  6.365111E-09  0.000000E+00    1 
 5.250000E-01  7.500000E-03  5.000000E-01  7.751708E-12  6.322871E-09  0.000000E+00    1 
 5.750000E-01  7.500000E-03  5.000000E-01  7.748235E-12  6.280630E-09  0.000000E+00    1 
 6.250000E-01  7.500000E-03  5.000000E-01  7.744785E-12  6.238388E-09  0.000000E+00    1 
 6.750000E-01  7.500000E-03  5.000000E-01  7.741358E-12  6.196144E-09  0.000000E+00    1 
 7.250000E-01  7.500000E-03  5.000000E-01  7.737954E-12  6.153900E-09  0.000000E+00    1 
 7.750000E-01  7.500000E-03  5.000000E-01  7.734573E-12  6.111654E-09  0.000000E+00    1 
 8.250000E-01  7.500000E-03  5.000000E-01  7.731215E-12  6.069407E-09  0.000000E+00    1 
 8.750000E-01  7.500000E-03  5.000000E-01  7.727881E-12  6.027159E-09  0.000000E+00    1 
 9.250000E-01  7.500000E-03  5.000000E-01  7.724569E-12  5.984910E-09  0.000000E+00    1 
 9.750000E-01  7.500000E-03  5.000000E-01  7.721280E-12  5.942659E-09  0.000000E+00    1 
 1.050000E+00  7.500000E-03  5.000000E-01  7.716399E-12  5.879282E-09  0.000000E+00    1 
 1.150000E+00  7.500000E-03  5.000000E-01  7.709960E-12  5.794775E-09  0.000000E+00    1 
 1.250000E+00  7.500000E-03  5.000000E-01  7.703613E-12  5.710264E-09  0.000000E+00    1 
 1.350000E+00  7.500000E-03  5.000000E-01  7.697358E-12  5.625748E-09  0.000000E+00    1 
 1.450000E+00  7.500000E-03  5.000000E-01  7.691196E-12  5.541229E-09  0.000000E+00    1 
 1.550000E+00  7.500000E-03  5.000000E-01  7.685127E-12  5.456706E-09  0.000000E+00    1 
 1.650000E+00  7.500000E-03  5.000000E-01  7.679150E-12  5.372178E-09  0.000000E+00    1 
 1.750000E+00  7.500000E-03  5.000000E-01  7.673265E-12  5.287647E-09  0.000000E+00    1 
 1.850000E+00  7.500000E-03  5.000000E-01  7.667473E-12  5.203113E-09  0.000000E+00    1 
 1.950000E+00  7.500000E-03  5.000000E-01  7.661774E-12  5.118575E-09  0.000000E+00    1 
 2.100000E+00  7.500000E-03  5.000000E-01  7.653433E-12  4.991762E-09  0.000000E+00    1 
 2.300000E+00  7.500000E-03  5.000000E-01  7.642590E-12  4.822665E-09  0.000000E+00    1 
 2.500000E+00  7.500000E-03  5.000000E-01  7.632119E-12  4.653555E-09  0.000000E+00    1 
 2.700000E+00  7.500000E-03  5.000000E-01  7.622018E-12  4.484433E-09  0.000000E+00    1 
 2.900000E+00  7.500000E-03  5.000000E-01  7.612290E-12  4.315299E-09  0.000000E+00    1 
 3.100000E+00  7.500000E-03  5.000000E-01  7.602933E-12  4.146154E-09  0.000000E+00    1 
 3.300000E+00  7.500000E-03  5.000000E-01  7.593949E-12  3.976999E-09  0.000000E+00    1 
 3.500000E+00  7.500000E-03  5.000000E-01  7.585337E-12  3.807833E-09  0.000000E+00    1 
 3.700000E+00  7.500000E-03  5.000000E-01  7.577098E-12  3.638658E-09  0.000000E+00    1 
 3.900000E+00  7.500000E-03  5.000000E-01  7.569232E-12  3.469474E-09  0.000000E+00    1 
 4.500000E+00  7.500000E-03  5.000000E-01  7.548992E-12  2.961896E-09  0.000000E+00    1 
 5.500000E+00  7.500000E-03  5.000000E-01  7.520871E-12  2.115760E-09  0.000000E+00    1 
 6.500000E+00  7.500000E-03  5.000000E-01  7.502072E-12  1.269503E-09  0.000000E+00    1 
 7.500000E+00  7.500000E-03  5.000000E-01  7.494995E-12  4.231581E-10  0.000000E+00    1 
 5.000000E-03  1.250000E-02  5.000000E-01  3.360865E-12  4.603204E-09  0.000000E+00    1 
 1.500000E-02  1.250000E-02  5.000000E-01  3.670039E-12  4.597573E-09  0.000000E+00    1 
 2.500000E-02  1.250000E-02  5.000000E-01  4.024635E-12  4.591689E-09  0.000000E+00    1 
 3.500000E-02  1.250000E-02  5.000000E-01  4.076075E-12  4.585814E-09  0.000000E+00    1 
 4.500000E-02  1.250000E-02  5.000000E-01  4.082662E-12  4.579944E-09  0.000000E+00    1 
 5.500000E-02  1.250000E-02  5.000000E-01  4.083064E-12  4.574075E-09  0.000000E+00    1 
 6.500000E-02  1.250000E-02  5.000000E-01  4.082630E-12  4.568207E-09  0.000000E+00    1 
 7.500000E-02  1.250000E-02  5.000000E-01  4.082084E-12  4.562340E-09  0.000000E+00    1 
 8.500000E-02  1.250000E-02  5.000000E-01  4.081523E-12  4.556473E-09  0.000000E+00    1 
 9.500000E-02  1.250000E-02  5.000000E-01  4.080960E-12  4.550606E-09  0.000000E+00    1 
 1.100000E-01  1.250000E-02  5.000000E-01  4.080117E-12  4.541806E-09  0.000000E+00    1 
 1.300000E-01  1.250000E-02  5.000000E-01  4.078995E-12  4.530075E-09  0.000000E+00    1 
 1.500000E-01  1.250000E-02  5.000000E-01  4.077875E-12  4.518346E-09  0.000000E+00    1 
 1.700000E-01  1.250000E-02  5.000000E-01  4.076759E-12  4.506618E-09  0.000000E+00    1 
 1.900000E-01  1.250000E-02  5.000000E-01  4.075646E-12  4.494892E-09  0.000000E+00    1 
 2.100000E-01  1.250000E-02  5.000000E-01  4.074535E-12  4.483168E-09  0.000000E+00    1 
 2.300000E-01  1.250000E-02  5.000000E-01  4.073427E-12  4.471445E-09  0.000000E+00    1 
 2.500000E-01  1.250000E-02  5.000000E-01  4.072323E-12  4.459724E-09  0.000000E+00    1 
 2.700000E-01  1.250000E-02  5.000000E-01  4.071221E-12  4.448005E-09  0.000000E+00    1 
 2.900000E-01  1.250000E-02  5.000000E-01  4.070122E-12  4.436287E-09  0.000000E+00    1 
 3.250000E-01  1.250000E-02  5.000000E-01  4.068207E-12  4.415783E-09  0.000000E+00    1 
 3.750000E-01  1.250000E-02  5.000000E-01  4.065485E-12  4.386503E-09  0.000000E+00    1 
 4.250000E-01  1.250000E-02  5.000000E-01  4.062781E-12  4.357232E-09  0.000000E+00    1 
 4.750000E-01  1.250000E-02  5.000000E-01  4.060094E-12  4.327972E-09  0.000000E+00    1 
 5.250000E-01  1.250000E-02  5.000000E-01  4.057426E-12  4.298721E-09  0.000000E+00    1 
 5.750000E-01  1.250000E-02  5.000000E-01  4.054776E-12  4.269480E-09  0.000000E+00    1 
 6.250000E-01  1.250000E-02  5.000000E-01  4.052143E-12  4.240249E-09  0.000000E+00    1 
 6.750000E-01  1.250000E-02  5.000000E-01  4.049529E-12  4.211027E-09  0.000000E+00    1 
 7.250000E-01  1.250000E-02  5.000000E-01  4.046932E-12  4.181815E-09  0.000000E+00    1 
 7.750000E-01  1.250000E-02  5.000000E-01  4.044354E-12  4.152613E-09  0.000000E+00    1 
 8.250000E-01  1.250000E-02  5.000000E-01  4.041794E-12  4.123420E-09  0.000000E+00    1 
 8.750000E-01  1.250000E-02  5.000000E-01  4.039251E-12  4.094237E-09  0.000000E+00    1 
 9.250000E-01  1.250000E-02  5.000000E-01  4.036727E-12  4.065063E-09  0.000000E+00    1 
 9.750000E-01  1.250000E-02  5.000000E-01  4.034220E-12  4.035898E-09  0.000000E+00    1 
 1.050000E+00  1.250000E-02  5.000000E-01  4.030501E-12  3.992164E-09  0.000000E+00    1 
 1.150000E+00  1.250000E-02  5.000000E-01  4.025595E-12  3.933890E-09  0.000000E+00    1 
 1.250000E+00  1.250000E-02  5.000000E-01  4.020761E-12  3.875652E-09  0.000000E+00    1 
 1.350000E+00  1.250000E-02  5.000000E-01  4.015999E-12  3.817449E-09  0.000000E+00    1 
 1.450000E+00  1.250000E-02  5.000000E-01  4.011309E-12  3.759281E-09  0.000000E+00    1 
 1.550000E+00  1.250000E-02  5.000000E-01  4.006691E-12  3.701148E-09  0.000000E+00    1 
 1.650000E+00  1.250000E-02  5.000000E-01  4.002144E-12  3.643049E-09  0.000000E+00    1 
 1.750000E+00  1.250000E-02  5.000000E-01  3.997668E-12  3.584983E-09  0.000000E+00    1 
 1.850000E+00  1.250000E-02  5.000000E-01  3.993265E-12  3.526950E-09  0.000000E+00    1 
 1.950000E+00  1.250000E-02  5.000000E-01  3.988933E-12  3.468950E-09  0.000000E+00    1 
 2.100000E+00  1.250000E-02  5.000000E-01  3.982595E-12  3.381998E-09  0.000000E+00    1 
 2.300000E+00  1.250000E-02  5.000000E-01  3.974360E-12  3.266187E-09  0.000000E+00    1 
 2.500000E+00  1.250000E-02  5.000000E-01  3.966411E-12  3.150496E-09  0.000000E+00    1 
 2.700000E+00  1.250000E-02  5.000000E-01  3.958747E-12  3.034922E-09  0.000000E+00    1 
 2.900000E+00  1.250000E-02  5.000000E-01  3.951369E-12  2.919461E-09  0.000000E+00    1 
 3.100000E+00  1.250000E-02  5.000000E-01  3.944276E-12  2.804108E-09  0.000000E+00    1 
 3.300000E+00  1.250000E-02  5.000000E-01  3.937468E-12  2.688859E-09  0.000000E+00    1 
 3.500000E+00  1.250000E-02  5.000000E-01  3.930945E-12  2.573710E-09  0.000000E+00    1 
 3.700000E+00  1.250000E-02  5.000000E-01  3.924706E-12  2.458656E-09  0.000000E+00    1 
 3.900000E+00  1.250000E-02  5.000000E-01  3.918752E-12  2.343695E-09  0.000000E+00    1 
 4.500000E+00  1.250000E-02  5.000000E-01  3.903450E-12  1.999072E-09  0.000000E+00    1 
 5.500000E+00  1.250000E-02  5.000000E-01  3.882206E-12  1.426570E-09  0.000000E+00    1 
 6.500000E+00  1.250000E-02  5.000000E-01  3.868003E-12  8.554061E-10  0.000000E+00    1 
 7.500000E+00  1.250000E-02  5.000000E-01  3.862649E-12  2.850479E-10  0.000000E+00    1 
 5.000000E-03  1.750000E-02  5.000000E-01  1.457606E-12  2.508466E-09  0.000000E+00    1 
 1.500000E-02  1.750000E-02  5.000000E-01  1.645886E-12  2.505701E-09  0.000000E+00    1 
 2.500000E-02  1.750000E-02  5.000000E-01  1.869330E-12  2.502508E-09  0.000000E+00    1 
 3.500000E-02  1.750000E-02  5.000000E-01  1.910109E-12  2.499267E-09  0.000000E+00    1 
 4.500000E-02  1.750000E-02  5.000000E-01  1.916445E-12  2.496021E-09  0.000000E+00    1 
 5.500000E-02  1.750000E-02  5.000000E-01  1.917136E-12  2.492776E-09  0.000000E+00    1 
 6.500000E-02  1.750000E-02  5.000000E-01  1.916963E-12  2.489532E-09  0.000000E+00    1 
 7.500000E-02  1.750000E-02  5.000000E-01  1.916662E-12  2.486287E-09  0.000000E+00    1 
 8.500000E-02  1.750000E-02  5.000000E-01  1.916342E-12  2.483043E-09  0.000000E+00    1 
 9.500000E-02  1.750000E-02  5.000000E-01  1.916020E-12  2.479800E-09  0.000000E+00    1 
 1.100000E-01  1.750000E-02  5.000000E-01  1.915537E-12  2.474935E-09  0.000000E+00    1 
 1.300000E-01  1.750000E-02  5.000000E-01  1.914894E-12  2.468451E-09  0.000000E+00    1 
 1.500000E-01  1.750000E-02  5.000000E-01  1.914252E-12  2.461968E-09  0.000000E+00    1 
 1.700000E-01  1.750000E-02  5.000000E-01  1.913612E-12  2.455486E-09  0.000000E+00    1 
 1.900000E-01  1.750000E-02  5.000000E-01  1.912974E-12  2.449006E-09  0.000000E+00    1 
 2.100000E-01  1.750000E-02  5.000000E-01  1.912337E-12  2.442528E-09  0.000000E+00    1 
 2.300000E-01  1.750000E-02  5.000000E-01  1.911702E-12  2.436052E-09  0.000000E+00    1 
 2.500000E-01  1.750000E-02  5.000000E-01  1.911070E-12  2.429577E-09  0.000000E+00    1 
 2.700000E-01  1.750000E-02  5.000000E-01  1.910438E-12  2.423103E-09  0.000000E+00    1 
 2.900000E-01  1.750000E-02  5.000000E-01  1.909809E-12  2.416631E-09  0.000000E+00    1 
 3.250000E-01  1.750000E-02  5.000000E-01  1.908712E-12  2.405308E-09  0.000000E+00    1 
 3.750000E-01  1.750000E-02  5.000000E-01  1.907152E-12  2.389143E-09  0.000000E+00    1 
 4.250000E-01  1.750000E-02  5.000000E-01  1.905603E-12  2.372987E-09  0.000000E+00    1 
 4.750000E-01  1.750000E-02  5.000000E-01  1.904064E-12  2.356840E-09  0.000000E+00    1 
 5.250000E-01  1.750000E-02  5.000000E-01  1.902536E-12  2.340704E-09  0.000000E+00    1 
 5.750000E-01  1.750000E-02  5.000000E-01  1.901018E-12  2.324576E-09  0.000000E+00    1 
 6.250000E-01  1.750000E-02  5.000000E-01  1.899511E-12  2.308459E-09  0.000000E+00    1 
 6.750000E-01  1.750000E-02  5.000000E-01  1.898014E-12  2.292350E-09  0.000000E+00    1 
 7.250000E-01  1.750000E-02  5.000000E-01  1.896527E-12  2.276251E-09  0.000000E+00    1 
 7.750000E-01  1.750000E-02  5.000000E-01  1.895051E-12  2.260162E-09  0.000000E+00    1 
 8.250000E-01  1.750000E-02  5.000000E-01  1.893586E-12  2.244082E-09  0.000000E+00    1 
 8.750000E-01  1.750000E-02  5.000000E-01  1.892131E-12  2.228010E-09  0.000000E+00    1 
 9.250000E-01  1.750000E-02  5.000000E-01  1.890686E-12  2.211948E-09  0.000000E+00    1 
 9.750000E-01  1.750000E-02  5.000000E-01  1.889252E-12  2.195895E-09  0.000000E+00    1 
 1.050000E+00  1.750000E-02  5.000000E-01  1.887124E-12  2.171829E-09  0.000000E+00    1 
 1.150000E+00  1.750000E-02  5.000000E-01  1.884318E-12  2.139777E-09  0.000000E+00    1 
 1.250000E+00  1.750000E-02  5.000000E-01  1.881553E-12  2.107759E-09  0.000000E+00    1 
 1.350000E+00  1.750000E-02  5.000000E-01  1.878830E-12  2.075776E-09  0.000000E+00    1 
 1.450000E+00  1.750000E-02  5.000000E-01  1.876149E-12  2.043827E-09  0.000000E+00    1 
 1.550000E+00  1.750000E-02  5.000000E-01  1.873509E-12  2.011912E-09  0.000000E+00    1 
 1.650000E+00  1.750000E-02  5.000000E-01  1.870910E-12  1.980029E-09  0.000000E+00    1 
 1.750000E+00  1.750000E-02  5.000000E-01  1.868353E-12  1.948179E-09  0.000000E+00    1 
 1.850000E+00  1.750000E-02  5.000000E-01  1.865838E-12  1.916361E-09  0.000000E+00    1 
 1.950000E+00  1.750000E-02  5.000000E-01  1.863363E-12  1.884575E-09  0.000000E+00    1 
 2.100000E+00  1.750000E-02  5.000000E-01  1.859744E-12  1.836941E-09  0.000000E+00    1 
 2.300000E+00  1.750000E-02  5.000000E-01  1.855043E-12  1.773551E-09  0.000000E+00    1 
 2.500000E+00  1.750000E-02  5.000000E-01  1.850506E-12  1.710277E-09  0.000000E+00    1 
 2.700000E+00  1.750000E-02  5.000000E-01  1.846134E-12  1.647115E-09  0.000000E+00    1 
 2.900000E+00  1.750000E-02  5.000000E-01  1.841925E-12  1.584062E-09  0.000000E+00    1 
 3.100000E+00  1.750000E-02  5.000000E-01  1.837881E-12  1.521113E-09  0.000000E+00    1 
 3.300000E+00  1.750000E-02  5.000000E-01  1.834000E-12  1.458265E-09  0.000000E+00    1 
 3.500000E+00  1.750000E-02  5.000000E-01  1.830282E-12  1.395512E-09  0.000000E+00    1 
 3.700000E+00  1.750000E-02  5.000000E-01  1.826728E-12  1.332852E-09  0.000000E+00    1 
 3.900000E+00  1.750000E-02  5.000000E-01  1.823337E-12  1.270280E-09  0.000000E+00    1 
 4.500000E+00  1.750000E-02  5.000000E-01  1.814627E-12  1.082814E-09  0.000000E+00    1 
 5.500000E+00  1.750000E-02  5.000000E-01  1.802541E-12  7.721603E-10  0.000000E+00    1 
 6.500000E+00  1.750000E-02  5.000000E-01  1.794461E-12  4.627849E-10  0.000000E+00    1 
 7.500000E+00  1.750000E-02  5.000000E-01  1.791413E-12  1.541821E-10  0.000000E+00    1 
 5.000000E-03  2.250000E-02  5.000000E-01  5.952590E-13  1.199989E-09  0.000000E+00    1 
 1.500000E-02  2.250000E-02  5.000000E-01  6.907776E-13  1.198765E-09  0.000000E+00    1 
 2.500000E-02  2.250000E-02  5.000000E-01  8.076328E-13  1.197252E-09  0.000000E+00    1 
 3.500000E-02  2.250000E-02  5.000000E-01  8.329238E-13  1.195692E-09  0.000000E+00    1 
 4.500000E-02  2.250000E-02  5.000000E-01  8.374898E-13  1.194125E-09  0.000000E+00    1 
 5.500000E-02  2.250000E-02  5.000000E-01  8.381340E-13  1.192557E-09  0.000000E+00    1 
 6.500000E-02  2.250000E-02  5.000000E-01  8.381052E-13  1.190990E-09  0.000000E+00    1 
 7.500000E-02  2.250000E-02  5.000000E-01  8.379670E-13  1.189423E-09  0.000000E+00    1 
 8.500000E-02  2.250000E-02  5.000000E-01  8.378115E-13  1.187856E-09  0.000000E+00    1 
 9.500000E-02  2.250000E-02  5.000000E-01  8.376537E-13  1.186289E-09  0.000000E+00    1 
 1.100000E-01  2.250000E-02  5.000000E-01  8.374165E-13  1.183940E-09  0.000000E+00    1 
 1.300000E-01  2.250000E-02  5.000000E-01  8.371007E-13  1.180808E-09  0.000000E+00    1 
 1.500000E-01  2.250000E-02  5.000000E-01  8.367854E-13  1.177677E-09  0.000000E+00    1 
 1.700000E-01  2.250000E-02  5.000000E-01  8.364710E-13  1.174547E-09  0.000000E+00    1 
 1.900000E-01  2.250000E-02  5.000000E-01  8.361579E-13  1.171419E-09  0.000000E+00    1 
 2.100000E-01  2.250000E-02  5.000000E-01  8.358452E-13  1.168291E-09  0.000000E+00    1 
 2.300000E-01  2.250000E-02  5.000000E-01  8.355332E-13  1.165164E-09  0.000000E+00    1 
 2.500000E-01  2.250000E-02  5.000000E-01  8.352226E-13  1.162038E-09  0.000000E+00    1 
 2.700000E-01  2.250000E-02  5.000000E-01  8.349129E-13  1.158914E-09  0.000000E+00    1 
 2.900000E-01  2.250000E-02  5.000000E-01  8.346036E-13  1.155790E-09  0.000000E+00    1 
 3.250000E-01  2.250000E-02  5.000000E-01  8.340648E-13  1.150325E-09  0.000000E+00    1 
 3.750000E-01  2.250000E-02  5.000000E-01  8.332989E-13  1.142524E-09  0.000000E+00    1 
 4.250000E-01  2.250000E-02  5.000000E-01  8.325384E-13  1.134729E-09  0.000000E+00    1 
 4.750000E-01  2.250000E-02  5.000000E-01  8.317832E-13  1.126940E-09  0.000000E+00    1 
 5.250000E-01  2.250000E-02  5.000000E-01  8.310329E-13  1.119157E-09  0.000000E+00    1 
 5.750000E-01  2.250000E-02  5.000000E-01  8.302878E-13  1.111380E-09  0.000000E+00    1 
 6.250000E-01  2.250000E-02  5.000000E-01  8.295482E-13  1.103609E-09  0.000000E+00    1 
 6.750000E-01  2.250000E-02  5.000000E-01  8.288136E-13  1.095844E-09  0.000000E+00    1 
 7.250000E-01  2.250000E-02  5.000000E-01  8.280840E-13  1.088084E-09  0.000000E+00    1 
 7.750000E-01  2.250000E-02  5.000000E-01  8.273599E-13  1.080331E-09  0.000000E+00    1 
 8.250000E-01  2.250000E-02  5.000000E-01  8.266407E-13  1.072583E-09  0.000000E+00    1 
 8.750000E-01  2.250000E-02  5.000000E-01  8.259267E-13  1.064841E-09  0.000000E+00    1 
 9.250000E-01  2.250000E-02  5.000000E-01  8.252181E-13  1.057104E-09  0.000000E+00    1 
 9.750000E-01  2.250000E-02  5.000000E-01  8.245145E-13  1.049373E-09  0.000000E+00    1 
 1.050000E+00  2.250000E-02  5.000000E-01  8.234705E-13  1.037785E-09  0.000000E+00    1 
 1.150000E+00  2.250000E-02  5.000000E-01  8.220942E-13  1.022357E-09  0.000000E+00    1 
 1.250000E+00  2.250000E-02  5.000000E-01  8.207385E-13  1.006950E-09  0.000000E+00    1 
 1.350000E+00  2.250000E-02  5.000000E-01  8.194033E-13  9.915642E-10  0.000000E+00    1 
 1.450000E+00  2.250000E-02  5.000000E-01  8.180885E-13  9.761998E-10  0.000000E+00    1 
 1.550000E+00  2.250000E-02  5.000000E-01  8.167943E-13  9.608561E-10  0.000000E+00    1 
 1.650000E+00  2.250000E-02  5.000000E-01  8.155205E-13  9.455329E-10  0.000000E+00    1 
 1.750000E+00  2.250000E-02  5.000000E-01  8.142672E-13  9.302298E-10  0.000000E+00    1 
 1.850000E+00  2.250000E-02  5.000000E-01  8.130344E-13  9.149466E-10  0.000000E+00    1 
 1.950000E+00  2.250000E-02  5.000000E-01  8.118217E-13  8.996828E-10  0.000000E+00    1 
 2.100000E+00  2.250000E-02  5.000000E-01  8.100487E-13  8.768158E-10  0.000000E+00    1 
 2.300000E+00  2.250000E-02  5.000000E-01  8.077457E-13  8.464012E-10  0.000000E+00    1 
 2.500000E+00  2.250000E-02  5.000000E-01  8.055238E-13  8.160587E-10  0.000000E+00    1 
 2.700000E+00  2.250000E-02  5.000000E-01  8.033828E-13  7.857857E-10  0.000000E+00    1 
 2.900000E+00  2.250000E-02  5.000000E-01  8.013226E-13  7.555798E-10  0.000000E+00    1 
 3.100000E+00  2.250000E-02  5.000000E-01  7.993429E-13  7.254383E-10  0.000000E+00    1 
 3.300000E+00  2.250000E-02  5.000000E-01  7.974437E-13  6.953588E-10  0.000000E+00    1 
 3.500000E+00  2.250000E-02  5.000000E-01  7.956247E-13  6.653385E-10  0.000000E+00    1 
 3.700000E+00  2.250000E-02  5.000000E-01  7.938859E-13  6.353751E-10  0.000000E+00    1 
 3.900000E+00  2.250000E-02  5.000000E-01  7.922269E-13  6.054660E-10  0.000000E+00    1 
 4.500000E+00  2.250000E-02  5.000000E-01  7.879686E-13  5.158936E-10  0.000000E+00    1 
 5.500000E+00  2.250000E-02  5.000000E-01  7.820613E-13  3.677090E-10  0.000000E+00    1 
 6.500000E+00  2.250000E-02  5.000000E-01  7.781117E-13  2.203110E-10  0.000000E+00    1 
 7.500000E+00  2.250000E-02  5.000000E-01  7.766206E-13  7.338908E-11  0.000000E+00    1 
 5.000000E-03  2.750000E-02  5.000000E-01  2.336158E-13  5.299587E-10  0.000000E+00    1 
 1.500000E-02  2.750000E-02  5.000000E-01  2.775019E-13  5.294528E-10  0.000000E+00    1 
 2.500000E-02  2.750000E-02  5.000000E-01  3.327099E-13  5.287938E-10  0.000000E+00    1 
 3.500000E-02  2.750000E-02  5.000000E-01  3.464127E-13  5.281031E-10  0.000000E+00    1 
 4.500000E-02  2.750000E-02  5.000000E-01  3.492165E-13  5.274071E-10  0.000000E+00    1 
 5.500000E-02  2.750000E-02  5.000000E-01  3.496845E-13  5.267104E-10  0.000000E+00    1 
 6.500000E-02  2.750000E-02  5.000000E-01  3.497084E-13  5.260137E-10  0.000000E+00    1 
 7.500000E-02  2.750000E-02  5.000000E-01  3.496535E-13  5.253171E-10  0.000000E+00    1 
 8.500000E-02  2.750000E-02  5.000000E-01  3.495852E-13  5.246207E-10  0.000000E+00    1 
 9.500000E-02  2.750000E-02  5.000000E-01  3.495147E-13  5.239243E-10  0.000000E+00    1 
 1.100000E-01  2.750000E-02  5.000000E-01  3.494084E-13  5.228800E-10  0.000000E+00    1 
 1.300000E-01  2.750000E-02  5.000000E-01  3.492669E-13  5.214881E-10  0.000000E+00    1 
 1.500000E-01  2.750000E-02  5.000000E-01  3.491254E-13  5.200968E-10  0.000000E+00    1 
 1.700000E-01  2.750000E-02  5.000000E-01  3.489845E-13  5.187059E-10  0.000000E+00    1 
 1.900000E-01  2.750000E-02  5.000000E-01  3.488441E-13  5.173155E-10  0.000000E+00    1 
 2.100000E-01  2.750000E-02  5.000000E-01  3.487038E-13  5.159257E-10  0.000000E+00    1 
 2.300000E-01  2.750000E-02  5.000000E-01  3.485639E-13  5.145363E-10  0.000000E+00    1 
 2.500000E-01  2.750000E-02  5.000000E-01  3.484248E-13  5.131475E-10  0.000000E+00    1 
 2.700000E-01  2.750000E-02  5.000000E-01  3.482859E-13  5.117591E-10  0.000000E+00    1 
 2.900000E-01  2.750000E-02  5.000000E-01  3.481472E-13  5.103713E-10  0.000000E+00    1 
 3.250000E-01  2.750000E-02  5.000000E-01  3.479057E-13  5.079435E-10  0.000000E+00    1 
 3.750000E-01  2.750000E-02  5.000000E-01  3.475622E-13  5.044782E-10  0.000000E+00    1 
 4.250000E-01  2.750000E-02  5.000000E-01  3.472212E-13  5.010161E-10  0.000000E+00    1 
 4.750000E-01  2.750000E-02  5.000000E-01  3.468827E-13  4.975570E-10  0.000000E+00    1 
 5.250000E-01  2.750000E-02  5.000000E-01  3.465464E-13  4.941010E-10  0.000000E+00    1 
 5.750000E-01  2.750000E-02  5.000000E-01  3.462123E-13  4.906480E-10  0.000000E+00    1 
 6.250000E-01  2.750000E-02  5.000000E-01  3.458808E-13  4.871980E-10  0.000000E+00    1 
 6.750000E-01  2.750000E-02  5.000000E-01  3.455517E-13  4.837510E-10  0.000000E+00    1 
 7.250000E-01  2.750000E-02  5.000000E-01  3.452247E-13  4.803070E-10  0.000000E+00    1 
 7.750000E-01  2.750000E-02  5.000000E-01  3.449001E-13  4.768659E-10  0.000000E+00    1 
 8.250000E-01  2.750000E-02  5.000000E-01  3.445778E-13  4.734277E-10  0.000000E+00    1 
 8.750000E-01  2.750000E-02  5.000000E-01  3.442579E-13  4.699924E-10  0.000000E+00    1 
 9.250000E-01  2.750000E-02  5.000000E-01  3.439403E-13  4.665600E-10  0.000000E+00    1 
 9.750000E-01  2.750000E-02  5.000000E-01  3.436250E-13  4.631305E-10  0.000000E+00    1 
 1.050000E+00  2.750000E-02  5.000000E-01  3.431573E-13  4.579905E-10  0.000000E+00    1 
 1.150000E+00  2.750000E-02  5.000000E-01  3.425407E-13  4.511484E-10  0.000000E+00    1 
 1.250000E+00  2.750000E-02  5.000000E-01  3.419333E-13  4.443173E-10  0.000000E+00    1 
 1.350000E+00  2.750000E-02  5.000000E-01  3.413352E-13  4.374971E-10  0.000000E+00    1 
 1.450000E+00  2.750000E-02  5.000000E-01  3.407462E-13  4.306877E-10  0.000000E+00    1 
 1.550000E+00  2.750000E-02  5.000000E-01  3.401666E-13  4.238888E-10  0.000000E+00    1 
 1.650000E+00  2.750000E-02  5.000000E-01  3.395962E-13  4.171004E-10  0.000000E+00    1 