TITLE = "   1.1574E-01 [d]"
VARIABLES="X [m]","Y [m]","Z [m]","qlx [m/d]","qly [m/d]","qlz [m/d]","Material_ID"
ZONE T= "  1.15741E-01", I=   58, J=   38, K=    1, DATAPACKING=POINT
 5.000000E-03  2.500000E-03  5.000000E-01  2.451257E-04  3.144910E-09  0.000000E+00    2 
 1.500000E-02  2.500000E-03  5.000000E-01  2.451194E-04  3.135974E-09  0.000000E+00    2 
 2.500000E-02  2.500000E-03  5.000000E-01  2.451132E-04  3.131002E-09  0.000000E+00    2 
 3.500000E-02  2.500000E-03  5.000000E-01  2.451069E-04  3.126799E-09  0.000000E+00    2 
 4.500000E-02  2.500000E-03  5.000000E-01  2.451007E-04  3.122796E-09  0.000000E+00    2 
 5.500000E-02  2.500000E-03  5.000000E-01  2.450944E-04  3.118853E-09  0.000000E+00    2 
 6.500000E-02  2.500000E-03  5.000000E-01  2.450882E-04  3.114928E-09  0.000000E+00    2 
 7.500000E-02  2.500000E-03  5.000000E-01  2.450820E-04  3.111009E-09  0.000000E+00    2 
 8.500000E-02  2.500000E-03  5.000000E-01  2.450757E-04  3.107093E-09  0.000000E+00    2 
 9.500000E-02  2.500000E-03  5.000000E-01  2.450695E-04  3.103177E-09  0.000000E+00    2 
 1.100000E-01  2.500000E-03  5.000000E-01  2.450602E-04  3.097303E-09  0.000000E+00    2 
 1.300000E-01  2.500000E-03  5.000000E-01  2.450479E-04  3.089471E-09  0.000000E+00    2 
 1.500000E-01  2.500000E-03  5.000000E-01  2.450355E-04  3.081639E-09  0.000000E+00    2 
 1.700000E-01  2.500000E-03  5.000000E-01  2.450232E-04  3.073807E-09  0.000000E+00    2 
 1.900000E-01  2.500000E-03  5.000000E-01  2.450109E-04  3.065975E-09  0.000000E+00    2 
 2.100000E-01  2.500000E-03  5.000000E-01  2.449987E-04  3.058142E-09  0.000000E+00    2 
 2.300000E-01  2.500000E-03  5.000000E-01  2.449865E-04  3.050310E-09  0.000000E+00    2 
 2.500000E-01  2.500000E-03  5.000000E-01  2.449743E-04  3.042477E-09  0.000000E+00    2 
 2.700000E-01  2.500000E-03  5.000000E-01  2.449621E-04  3.034645E-09  0.000000E+00    2 
 2.900000E-01  2.500000E-03  5.000000E-01  2.449500E-04  3.026812E-09  0.000000E+00    2 
 3.250000E-01  2.500000E-03  5.000000E-01  2.449289E-04  3.013104E-09  0.000000E+00    2 
 3.750000E-01  2.500000E-03  5.000000E-01  2.448989E-04  2.993520E-09  0.000000E+00    2 
 4.250000E-01  2.500000E-03  5.000000E-01  2.448690E-04  2.973936E-09  0.000000E+00    2 
 4.750000E-01  2.500000E-03  5.000000E-01  2.448394E-04  2.954350E-09  0.000000E+00    2 
 5.250000E-01  2.500000E-03  5.000000E-01  2.448100E-04  2.934764E-09  0.000000E+00    2 
 5.750000E-01  2.500000E-03  5.000000E-01  2.447807E-04  2.915177E-09  0.000000E+00    2 
 6.250000E-01  2.500000E-03  5.000000E-01  2.447517E-04  2.895589E-09  0.000000E+00    2 
 6.750000E-01  2.500000E-03  5.000000E-01  2.447228E-04  2.876000E-09  0.000000E+00    2 
 7.250000E-01  2.500000E-03  5.000000E-01  2.446941E-04  2.856410E-09  0.000000E+00    2 
 7.750000E-01  2.500000E-03  5.000000E-01  2.446657E-04  2.836820E-09  0.000000E+00    2 
 8.250000E-01  2.500000E-03  5.000000E-01  2.446374E-04  2.817228E-09  0.000000E+00    2 
 8.750000E-01  2.500000E-03  5.000000E-01  2.446093E-04  2.797636E-09  0.000000E+00    2 
 9.250000E-01  2.500000E-03  5.000000E-01  2.445814E-04  2.778043E-09  0.000000E+00    2 
 9.750000E-01  2.500000E-03  5.000000E-01  2.445538E-04  2.758449E-09  0.000000E+00    2 
 1.050000E+00  2.500000E-03  5.000000E-01  2.445127E-04  2.729056E-09  0.000000E+00    2 
 1.150000E+00  2.500000E-03  5.000000E-01  2.444585E-04  2.689863E-09  0.000000E+00    2 
 1.250000E+00  2.500000E-03  5.000000E-01  2.444051E-04  2.650667E-09  0.000000E+00    2 
 1.350000E+00  2.500000E-03  5.000000E-01  2.443524E-04  2.611468E-09  0.000000E+00    2 
 1.450000E+00  2.500000E-03  5.000000E-01  2.443006E-04  2.572265E-09  0.000000E+00    2 
 1.550000E+00  2.500000E-03  5.000000E-01  2.442495E-04  2.533059E-09  0.000000E+00    2 
 1.650000E+00  2.500000E-03  5.000000E-01  2.441992E-04  2.493851E-09  0.000000E+00    2 
 1.750000E+00  2.500000E-03  5.000000E-01  2.441497E-04  2.454639E-09  0.000000E+00    2 
 1.850000E+00  2.500000E-03  5.000000E-01  2.441010E-04  2.415424E-09  0.000000E+00    2 
 1.950000E+00  2.500000E-03  5.000000E-01  2.440531E-04  2.376207E-09  0.000000E+00    2 
 2.100000E+00  2.500000E-03  5.000000E-01  2.439830E-04  2.317376E-09  0.000000E+00    2 
 2.300000E+00  2.500000E-03  5.000000E-01  2.438918E-04  2.238924E-09  0.000000E+00    2 
 2.500000E+00  2.500000E-03  5.000000E-01  2.438038E-04  2.160462E-09  0.000000E+00    2 
 2.700000E+00  2.500000E-03  5.000000E-01  2.437189E-04  2.081989E-09  0.000000E+00    2 
 2.900000E+00  2.500000E-03  5.000000E-01  2.436371E-04  2.003506E-09  0.000000E+00    2 
 3.100000E+00  2.500000E-03  5.000000E-01  2.435585E-04  1.925013E-09  0.000000E+00    2 
 3.300000E+00  2.500000E-03  5.000000E-01  2.434831E-04  1.846511E-09  0.000000E+00    2 
 3.500000E+00  2.500000E-03  5.000000E-01  2.434107E-04  1.768001E-09  0.000000E+00    2 
 3.700000E+00  2.500000E-03  5.000000E-01  2.433415E-04  1.689481E-09  0.000000E+00    2 
 3.900000E+00  2.500000E-03  5.000000E-01  2.432755E-04  1.610954E-09  0.000000E+00    2 
 4.500000E+00  2.500000E-03  5.000000E-01  2.431056E-04  1.375349E-09  0.000000E+00    2 
 5.500000E+00  2.500000E-03  5.000000E-01  2.428697E-04  9.825101E-10  0.000000E+00    2 
 6.500000E+00  2.500000E-03  5.000000E-01  2.427124E-04  5.895533E-10  0.000000E+00    2 
 7.500000E+00  2.500000E-03  5.000000E-01  2.426338E-04  1.964416E-10  0.000000E+00    2 
 5.000000E-03  7.500000E-03  5.000000E-01  7.826153E-12  3.085435E-09  0.000000E+00    1 
 1.500000E-02  7.500000E-03  5.000000E-01  8.321537E-12  3.078234E-09  0.000000E+00    1 
 2.500000E-02  7.500000E-03  5.000000E-01  8.912962E-12  3.073509E-09  0.000000E+00    1 
 3.500000E-02  7.500000E-03  5.000000E-01  9.033872E-12  3.069400E-09  0.000000E+00    1 
 4.500000E-02  7.500000E-03  5.000000E-01  9.066051E-12  3.065469E-09  0.000000E+00    1 
 5.500000E-02  7.500000E-03  5.000000E-01  9.075573E-12  3.061593E-09  0.000000E+00    1 
 6.500000E-02  7.500000E-03  5.000000E-01  9.078410E-12  3.057735E-09  0.000000E+00    1 
 7.500000E-02  7.500000E-03  5.000000E-01  9.079152E-12  3.053883E-09  0.000000E+00    1 
 8.500000E-02  7.500000E-03  5.000000E-01  9.079219E-12  3.050033E-09  0.000000E+00    1 
 9.500000E-02  7.500000E-03  5.000000E-01  9.079067E-12  3.046183E-09  0.000000E+00    1 
 1.100000E-01  7.500000E-03  5.000000E-01  9.078710E-12  3.040409E-09  0.000000E+00    1 
 1.300000E-01  7.500000E-03  5.000000E-01  9.078196E-12  3.032710E-09  0.000000E+00    1 
 1.500000E-01  7.500000E-03  5.000000E-01  9.077672E-12  3.025011E-09  0.000000E+00    1 
 1.700000E-01  7.500000E-03  5.000000E-01  9.077149E-12  3.017313E-09  0.000000E+00    1 
 1.900000E-01  7.500000E-03  5.000000E-01  9.076627E-12  3.009614E-09  0.000000E+00    1 
 2.100000E-01  7.500000E-03  5.000000E-01  9.076105E-12  3.001915E-09  0.000000E+00    1 
 2.300000E-01  7.500000E-03  5.000000E-01  9.075586E-12  2.994216E-09  0.000000E+00    1 
 2.500000E-01  7.500000E-03  5.000000E-01  9.075067E-12  2.986517E-09  0.000000E+00    1 
 2.700000E-01  7.500000E-03  5.000000E-01  9.074550E-12  2.978817E-09  0.000000E+00    1 
 2.900000E-01  7.500000E-03  5.000000E-01  9.074034E-12  2.971118E-09  0.000000E+00    1 
 3.250000E-01  7.500000E-03  5.000000E-01  9.073136E-12  2.957644E-09  0.000000E+00    1 
 3.750000E-01  7.500000E-03  5.000000E-01  9.071858E-12  2.938396E-09  0.000000E+00    1 
 4.250000E-01  7.500000E-03  5.000000E-01  9.070588E-12  2.919147E-09  0.000000E+00    1 
 4.750000E-01  7.500000E-03  5.000000E-01  9.069327E-12  2.899897E-09  0.000000E+00    1 
 5.250000E-01  7.500000E-03  5.000000E-01  9.068074E-12  2.880648E-09  0.000000E+00    1 
 5.750000E-01  7.500000E-03  5.000000E-01  9.066830E-12  2.861397E-09  0.000000E+00    1 
 6.250000E-01  7.500000E-03  5.000000E-01  9.065594E-12  2.842147E-09  0.000000E+00    1 
 6.750000E-01  7.500000E-03  5.000000E-01  9.064366E-12  2.822896E-09  0.000000E+00    1 
 7.250000E-01  7.500000E-03  5.000000E-01  9.063146E-12  2.803645E-09  0.000000E+00    1 
 7.750000E-01  7.500000E-03  5.000000E-01  9.061935E-12  2.784393E-09  0.000000E+00    1 
 8.250000E-01  7.500000E-03  5.000000E-01  9.060732E-12  2.765141E-09  0.000000E+00    1 
 8.750000E-01  7.500000E-03  5.000000E-01  9.059538E-12  2.745889E-09  0.000000E+00    1 
 9.250000E-01  7.500000E-03  5.000000E-01  9.058351E-12  2.726636E-09  0.000000E+00    1 
 9.750000E-01  7.500000E-03  5.000000E-01  9.057174E-12  2.707383E-09  0.000000E+00    1 
 1.050000E+00  7.500000E-03  5.000000E-01  9.055425E-12  2.678503E-09  0.000000E+00    1 
 1.150000E+00  7.500000E-03  5.000000E-01  9.053120E-12  2.639995E-09  0.000000E+00    1 
 1.250000E+00  7.500000E-03  5.000000E-01  9.050847E-12  2.601485E-09  0.000000E+00    1 
 1.350000E+00  7.500000E-03  5.000000E-01  9.048608E-12  2.562974E-09  0.000000E+00    1 
 1.450000E+00  7.500000E-03  5.000000E-01  9.046402E-12  2.524462E-09  0.000000E+00    1 
 1.550000E+00  7.500000E-03  5.000000E-01  9.044230E-12  2.485948E-09  0.000000E+00    1 
 1.650000E+00  7.500000E-03  5.000000E-01  9.042090E-12  2.447433E-09  0.000000E+00    1 
 1.750000E+00  7.500000E-03  5.000000E-01  9.039985E-12  2.408917E-09  0.000000E+00    1 
 1.850000E+00  7.500000E-03  5.000000E-01  9.037912E-12  2.370399E-09  0.000000E+00    1 
 1.950000E+00  7.500000E-03  5.000000E-01  9.035873E-12  2.331881E-09  0.000000E+00    1 
 2.100000E+00  7.500000E-03  5.000000E-01  9.032889E-12  2.274101E-09  0.000000E+00    1 
 2.300000E+00  7.500000E-03  5.000000E-01  9.029011E-12  2.197056E-09  0.000000E+00    1 
 2.500000E+00  7.500000E-03  5.000000E-01  9.025267E-12  2.120007E-09  0.000000E+00    1 
 2.700000E+00  7.500000E-03  5.000000E-01  9.021656E-12  2.042953E-09  0.000000E+00    1 
 2.900000E+00  7.500000E-03  5.000000E-01  9.018178E-12  1.965896E-09  0.000000E+00    1 
 3.100000E+00  7.500000E-03  5.000000E-01  9.014834E-12  1.888834E-09  0.000000E+00    1 
 3.300000E+00  7.500000E-03  5.000000E-01  9.011624E-12  1.811768E-09  0.000000E+00    1 
 3.500000E+00  7.500000E-03  5.000000E-01  9.008547E-12  1.734699E-09  0.000000E+00    1 
 3.700000E+00  7.500000E-03  5.000000E-01  9.005604E-12  1.657626E-09  0.000000E+00    1 
 3.900000E+00  7.500000E-03  5.000000E-01  9.002795E-12  1.580549E-09  0.000000E+00    1 
 4.500000E+00  7.500000E-03  5.000000E-01  8.995569E-12  1.349310E-09  0.000000E+00    1 
 5.500000E+00  7.500000E-03  5.000000E-01  8.985534E-12  9.638425E-10  0.000000E+00    1 
 6.500000E+00  7.500000E-03  5.000000E-01  8.978738E-12  5.783254E-10  0.000000E+00    1 
 7.500000E+00  7.500000E-03  5.000000E-01  8.976124E-12  1.927156E-10  0.000000E+00    1 
 5.000000E-03  1.250000E-02  5.000000E-01  5.093698E-12  2.868909E-09  0.000000E+00    1 
 1.500000E-02  1.250000E-02  5.000000E-01  5.835738E-12  2.864427E-09  0.000000E+00    1 
 2.500000E-02  1.250000E-02  5.000000E-01  6.789563E-12  2.860351E-09  0.000000E+00    1 
 3.500000E-02  1.250000E-02  5.000000E-01  7.065277E-12  2.856577E-09  0.000000E+00    1 
 4.500000E-02  1.250000E-02  5.000000E-01  7.149286E-12  2.852921E-09  0.000000E+00    1 
 5.500000E-02  1.250000E-02  5.000000E-01  7.175773E-12  2.849306E-09  0.000000E+00    1 
 6.500000E-02  1.250000E-02  5.000000E-01  7.184192E-12  2.845706E-09  0.000000E+00    1 
 7.500000E-02  1.250000E-02  5.000000E-01  7.186786E-12  2.842110E-09  0.000000E+00    1 
 8.500000E-02  1.250000E-02  5.000000E-01  7.187474E-12  2.838516E-09  0.000000E+00    1 
 9.500000E-02  1.250000E-02  5.000000E-01  7.187534E-12  2.834923E-09  0.000000E+00    1 
 1.100000E-01  1.250000E-02  5.000000E-01  7.187257E-12  2.829534E-09  0.000000E+00    1 
 1.300000E-01  1.250000E-02  5.000000E-01  7.186770E-12  2.822348E-09  0.000000E+00    1 
 1.500000E-01  1.250000E-02  5.000000E-01  7.186255E-12  2.815163E-09  0.000000E+00    1 
 1.700000E-01  1.250000E-02  5.000000E-01  7.185738E-12  2.807977E-09  0.000000E+00    1 
 1.900000E-01  1.250000E-02  5.000000E-01  7.185221E-12  2.800792E-09  0.000000E+00    1 
 2.100000E-01  1.250000E-02  5.000000E-01  7.184705E-12  2.793607E-09  0.000000E+00    1 
 2.300000E-01  1.250000E-02  5.000000E-01  7.184190E-12  2.786421E-09  0.000000E+00    1 
 2.500000E-01  1.250000E-02  5.000000E-01  7.183677E-12  2.779236E-09  0.000000E+00    1 
 2.700000E-01  1.250000E-02  5.000000E-01  7.183165E-12  2.772051E-09  0.000000E+00    1 
 2.900000E-01  1.250000E-02  5.000000E-01  7.182655E-12  2.764867E-09  0.000000E+00    1 
 3.250000E-01  1.250000E-02  5.000000E-01  7.181765E-12  2.752293E-09  0.000000E+00    1 
 3.750000E-01  1.250000E-02  5.000000E-01  7.180500E-12  2.734332E-09  0.000000E+00    1 
 4.250000E-01  1.250000E-02  5.000000E-01  7.179244E-12  2.716371E-09  0.000000E+00    1 
 4.750000E-01  1.250000E-02  5.000000E-01  7.177995E-12  2.698411E-09  0.000000E+00    1 
 5.250000E-01  1.250000E-02  5.000000E-01  7.176755E-12  2.680452E-09  0.000000E+00    1 
 5.750000E-01  1.250000E-02  5.000000E-01  7.175523E-12  2.662493E-09  0.000000E+00    1 
 6.250000E-01  1.250000E-02  5.000000E-01  7.174300E-12  2.644535E-09  0.000000E+00    1 
 6.750000E-01  1.250000E-02  5.000000E-01  7.173084E-12  2.626577E-09  0.000000E+00    1 
 7.250000E-01  1.250000E-02  5.000000E-01  7.171877E-12  2.608620E-09  0.000000E+00    1 
 7.750000E-01  1.250000E-02  5.000000E-01  7.170678E-12  2.590663E-09  0.000000E+00    1 
 8.250000E-01  1.250000E-02  5.000000E-01  7.169488E-12  2.572707E-09  0.000000E+00    1 
 8.750000E-01  1.250000E-02  5.000000E-01  7.168306E-12  2.554752E-09  0.000000E+00    1 
 9.250000E-01  1.250000E-02  5.000000E-01  7.167132E-12  2.536797E-09  0.000000E+00    1 
 9.750000E-01  1.250000E-02  5.000000E-01  7.165966E-12  2.518843E-09  0.000000E+00    1 
 1.050000E+00  1.250000E-02  5.000000E-01  7.164236E-12  2.491912E-09  0.000000E+00    1 
 1.150000E+00  1.250000E-02  5.000000E-01  7.161954E-12  2.456007E-09  0.000000E+00    1 
 1.250000E+00  1.250000E-02  5.000000E-01  7.159705E-12  2.420104E-09  0.000000E+00    1 
 1.350000E+00  1.250000E-02  5.000000E-01  7.157489E-12  2.384203E-09  0.000000E+00    1 
 1.450000E+00  1.250000E-02  5.000000E-01  7.155307E-12  2.348304E-09  0.000000E+00    1 
 1.550000E+00  1.250000E-02  5.000000E-01  7.153157E-12  2.312408E-09  0.000000E+00    1 
 1.650000E+00  1.250000E-02  5.000000E-01  7.151040E-12  2.276513E-09  0.000000E+00    1 
 1.750000E+00  1.250000E-02  5.000000E-01  7.148957E-12  2.240620E-09  0.000000E+00    1 
 1.850000E+00  1.250000E-02  5.000000E-01  7.146906E-12  2.204730E-09  0.000000E+00    1 
 1.950000E+00  1.250000E-02  5.000000E-01  7.144889E-12  2.168841E-09  0.000000E+00    1 
 2.100000E+00  1.250000E-02  5.000000E-01  7.141937E-12  2.115011E-09  0.000000E+00    1 
 2.300000E+00  1.250000E-02  5.000000E-01  7.138100E-12  2.043245E-09  0.000000E+00    1 
 2.500000E+00  1.250000E-02  5.000000E-01  7.134396E-12  1.971487E-09  0.000000E+00    1 
 2.700000E+00  1.250000E-02  5.000000E-01  7.130824E-12  1.899735E-09  0.000000E+00    1 
 2.900000E+00  1.250000E-02  5.000000E-01  7.127384E-12  1.827990E-09  0.000000E+00    1 
 3.100000E+00  1.250000E-02  5.000000E-01  7.124077E-12  1.756252E-09  0.000000E+00    1 
 3.300000E+00  1.250000E-02  5.000000E-01  7.120901E-12  1.684520E-09  0.000000E+00    1 
 3.500000E+00  1.250000E-02  5.000000E-01  7.117858E-12  1.612794E-09  0.000000E+00    1 
 3.700000E+00  1.250000E-02  5.000000E-01  7.114948E-12  1.541074E-09  0.000000E+00    1 
 3.900000E+00  1.250000E-02  5.000000E-01  7.112169E-12  1.469360E-09  0.000000E+00    1 
 4.500000E+00  1.250000E-02  5.000000E-01  7.105024E-12  1.254232E-09  0.000000E+00    1 
 5.500000E+00  1.250000E-02  5.000000E-01  7.095101E-12  8.957994E-10  0.000000E+00    1 
 6.500000E+00  1.250000E-02  5.000000E-01  7.088275E-12  5.374474E-10  0.000000E+00    1 
 7.500000E+00  1.250000E-02  5.000000E-01  7.085584E-12  1.791163E-10  0.000000E+00    1 
 5.000000E-03  1.750000E-02  5.000000E-01  3.344553E-12  2.496083E-09  0.000000E+00    1 
 1.500000E-02  1.750000E-02  5.000000E-01  4.042701E-12  2.493184E-09  0.000000E+00    1 
 2.500000E-02  1.750000E-02  5.000000E-01  4.987806E-12  2.489926E-09  0.000000E+00    1 
 3.500000E-02  1.750000E-02  5.000000E-01  5.318594E-12  2.486707E-09  0.000000E+00    1 
 4.500000E-02  1.750000E-02  5.000000E-01  5.430558E-12  2.483534E-09  0.000000E+00    1 
 5.500000E-02  1.750000E-02  5.000000E-01  5.468065E-12  2.480382E-09  0.000000E+00    1 
 6.500000E-02  1.750000E-02  5.000000E-01  5.480511E-12  2.477240E-09  0.000000E+00    1 
 7.500000E-02  1.750000E-02  5.000000E-01  5.484542E-12  2.474101E-09  0.000000E+00    1 
 8.500000E-02  1.750000E-02  5.000000E-01  5.485746E-12  2.470963E-09  0.000000E+00    1 
 9.500000E-02  1.750000E-02  5.000000E-01  5.486001E-12  2.467826E-09  0.000000E+00    1 
 1.100000E-01  1.750000E-02  5.000000E-01  5.485820E-12  2.463120E-09  0.000000E+00    1 
 1.300000E-01  1.750000E-02  5.000000E-01  5.485398E-12  2.456847E-09  0.000000E+00    1 
 1.500000E-01  1.750000E-02  5.000000E-01  5.484931E-12  2.450573E-09  0.000000E+00    1 
 1.700000E-01  1.750000E-02  5.000000E-01  5.484458E-12  2.444300E-09  0.000000E+00    1 
 1.900000E-01  1.750000E-02  5.000000E-01  5.483985E-12  2.438027E-09  0.000000E+00    1 
 2.100000E-01  1.750000E-02  5.000000E-01  5.483513E-12  2.431754E-09  0.000000E+00    1 
 2.300000E-01  1.750000E-02  5.000000E-01  5.483042E-12  2.425481E-09  0.000000E+00    1 
 2.500000E-01  1.750000E-02  5.000000E-01  5.482573E-12  2.419209E-09  0.000000E+00    1 
 2.700000E-01  1.750000E-02  5.000000E-01  5.482104E-12  2.412937E-09  0.000000E+00    1 
 2.900000E-01  1.750000E-02  5.000000E-01  5.481638E-12  2.406665E-09  0.000000E+00    1 
 3.250000E-01  1.750000E-02  5.000000E-01  5.480824E-12  2.395690E-09  0.000000E+00    1 
 3.750000E-01  1.750000E-02  5.000000E-01  5.479667E-12  2.380012E-09  0.000000E+00    1 
 4.250000E-01  1.750000E-02  5.000000E-01  5.478518E-12  2.364335E-09  0.000000E+00    1 
 4.750000E-01  1.750000E-02  5.000000E-01  5.477376E-12  2.348660E-09  0.000000E+00    1 
 5.250000E-01  1.750000E-02  5.000000E-01  5.476242E-12  2.332987E-09  0.000000E+00    1 
 5.750000E-01  1.750000E-02  5.000000E-01  5.475115E-12  2.317314E-09  0.000000E+00    1 
 6.250000E-01  1.750000E-02  5.000000E-01  5.473996E-12  2.301643E-09  0.000000E+00    1 
 6.750000E-01  1.750000E-02  5.000000E-01  5.472885E-12  2.285974E-09  0.000000E+00    1 
 7.250000E-01  1.750000E-02  5.000000E-01  5.471781E-12  2.270305E-09  0.000000E+00    1 
 7.750000E-01  1.750000E-02  5.000000E-01  5.470685E-12  2.254638E-09  0.000000E+00    1 
 8.250000E-01  1.750000E-02  5.000000E-01  5.469596E-12  2.238973E-09  0.000000E+00    1 
 8.750000E-01  1.750000E-02  5.000000E-01  5.468515E-12  2.223308E-09  0.000000E+00    1 
 9.250000E-01  1.750000E-02  5.000000E-01  5.467441E-12  2.207645E-09  0.000000E+00    1 
 9.750000E-01  1.750000E-02  5.000000E-01  5.466375E-12  2.191983E-09  0.000000E+00    1 
 1.050000E+00  1.750000E-02  5.000000E-01  5.464793E-12  2.168493E-09  0.000000E+00    1 
 1.150000E+00  1.750000E-02  5.000000E-01  5.462707E-12  2.137177E-09  0.000000E+00    1 
 1.250000E+00  1.750000E-02  5.000000E-01  5.460650E-12  2.105866E-09  0.000000E+00    1 
 1.350000E+00  1.750000E-02  5.000000E-01  5.458624E-12  2.074560E-09  0.000000E+00    1 
 1.450000E+00  1.750000E-02  5.000000E-01  5.456629E-12  2.043258E-09  0.000000E+00    1 
 1.550000E+00  1.750000E-02  5.000000E-01  5.454664E-12  2.011962E-09  0.000000E+00    1 
 1.650000E+00  1.750000E-02  5.000000E-01  5.452728E-12  1.980670E-09  0.000000E+00    1 
 1.750000E+00  1.750000E-02  5.000000E-01  5.450824E-12  1.949383E-09  0.000000E+00    1 
 1.850000E+00  1.750000E-02  5.000000E-01  5.448949E-12  1.918100E-09  0.000000E+00    1 
 1.950000E+00  1.750000E-02  5.000000E-01  5.447105E-12  1.886822E-09  0.000000E+00    1 
 2.100000E+00  1.750000E-02  5.000000E-01  5.444407E-12  1.839912E-09  0.000000E+00    1 
 2.300000E+00  1.750000E-02  5.000000E-01  5.440900E-12  1.777381E-09  0.000000E+00    1 
 2.500000E+00  1.750000E-02  5.000000E-01  5.437514E-12  1.714868E-09  0.000000E+00    1 
 2.700000E+00  1.750000E-02  5.000000E-01  5.434249E-12  1.652370E-09  0.000000E+00    1 
 2.900000E+00  1.750000E-02  5.000000E-01  5.431106E-12  1.589888E-09  0.000000E+00    1 
 3.100000E+00  1.750000E-02  5.000000E-01  5.428083E-12  1.527421E-09  0.000000E+00    1 
 3.300000E+00  1.750000E-02  5.000000E-01  5.425181E-12  1.464968E-09  0.000000E+00    1 
 3.500000E+00  1.750000E-02  5.000000E-01  5.422401E-12  1.402529E-09  0.000000E+00    1 
 3.700000E+00  1.750000E-02  5.000000E-01  5.419741E-12  1.340103E-09  0.000000E+00    1 
 3.900000E+00  1.750000E-02  5.000000E-01  5.417202E-12  1.277690E-09  0.000000E+00    1 
 4.500000E+00  1.750000E-02  5.000000E-01  5.410674E-12  1.090486E-09  0.000000E+00    1 
 5.500000E+00  1.750000E-02  5.000000E-01  5.401609E-12  7.787353E-10  0.000000E+00    1 
 6.500000E+00  1.750000E-02  5.000000E-01  5.395322E-12  4.671679E-10  0.000000E+00    1 
 7.500000E+00  1.750000E-02  5.000000E-01  5.392813E-12  1.557056E-10  0.000000E+00    1 
 5.000000E-03  2.250000E-02  5.000000E-01  2.194438E-12  2.047665E-09  0.000000E+00    1 
 1.500000E-02  2.250000E-02  5.000000E-01  2.757017E-12  2.045752E-09  0.000000E+00    1 
 2.500000E-02  2.250000E-02  5.000000E-01  3.550984E-12  2.043278E-09  0.000000E+00    1 
 3.500000E-02  2.250000E-02  5.000000E-01  3.869135E-12  2.040697E-09  0.000000E+00    1 
 4.500000E-02  2.250000E-02  5.000000E-01  3.986996E-12  2.038105E-09  0.000000E+00    1 
 5.500000E-02  2.250000E-02  5.000000E-01  4.028947E-12  2.035518E-09  0.000000E+00    1 
 6.500000E-02  2.250000E-02  5.000000E-01  4.043499E-12  2.032933E-09  0.000000E+00    1 
 7.500000E-02  2.250000E-02  5.000000E-01  4.048407E-12  2.030350E-09  0.000000E+00    1 
 8.500000E-02  2.250000E-02  5.000000E-01  4.049969E-12  2.027768E-09  0.000000E+00    1 
 9.500000E-02  2.250000E-02  5.000000E-01  4.050381E-12  2.025186E-09  0.000000E+00    1 
 1.100000E-01  2.250000E-02  5.000000E-01  4.050299E-12  2.021314E-09  0.000000E+00    1 
 1.300000E-01  2.250000E-02  5.000000E-01  4.049962E-12  2.016151E-09  0.000000E+00    1 
 1.500000E-01  2.250000E-02  5.000000E-01  4.049566E-12  2.010988E-09  0.000000E+00    1 
 1.700000E-01  2.250000E-02  5.000000E-01  4.049163E-12  2.005826E-09  0.000000E+00    1 
 1.900000E-01  2.250000E-02  5.000000E-01  4.048760E-12  2.000664E-09  0.000000E+00    1 
 2.100000E-01  2.250000E-02  5.000000E-01  4.048357E-12  1.995502E-09  0.000000E+00    1 
 2.300000E-01  2.250000E-02  5.000000E-01  4.047955E-12  1.990341E-09  0.000000E+00    1 
 2.500000E-01  2.250000E-02  5.000000E-01  4.047555E-12  1.985180E-09  0.000000E+00    1 
 2.700000E-01  2.250000E-02  5.000000E-01  4.047155E-12  1.980019E-09  0.000000E+00    1 
 2.900000E-01  2.250000E-02  5.000000E-01  4.046757E-12  1.974858E-09  0.000000E+00    1 
 3.250000E-01  2.250000E-02  5.000000E-01  4.046063E-12  1.965828E-09  0.000000E+00    1 
 3.750000E-01  2.250000E-02  5.000000E-01  4.045075E-12  1.952929E-09  0.000000E+00    1 
 4.250000E-01  2.250000E-02  5.000000E-01  4.044095E-12  1.940032E-09  0.000000E+00    1 
 4.750000E-01  2.250000E-02  5.000000E-01  4.043120E-12  1.927137E-09  0.000000E+00    1 
 5.250000E-01  2.250000E-02  5.000000E-01  4.042153E-12  1.914244E-09  0.000000E+00    1 
 5.750000E-01  2.250000E-02  5.000000E-01  4.041191E-12  1.901352E-09  0.000000E+00    1 
 6.250000E-01  2.250000E-02  5.000000E-01  4.040237E-12  1.888462E-09  0.000000E+00    1 
 6.750000E-01  2.250000E-02  5.000000E-01  4.039288E-12  1.875574E-09  0.000000E+00    1 
 7.250000E-01  2.250000E-02  5.000000E-01  4.038346E-12  1.862688E-09  0.000000E+00    1 
 7.750000E-01  2.250000E-02  5.000000E-01  4.037411E-12  1.849803E-09  0.000000E+00    1 
 8.250000E-01  2.250000E-02  5.000000E-01  4.036482E-12  1.836920E-09  0.000000E+00    1 
 8.750000E-01  2.250000E-02  5.000000E-01  4.035560E-12  1.824039E-09  0.000000E+00    1 
 9.250000E-01  2.250000E-02  5.000000E-01  4.034644E-12  1.811159E-09  0.000000E+00    1 
 9.750000E-01  2.250000E-02  5.000000E-01  4.033735E-12  1.798281E-09  0.000000E+00    1 
 1.050000E+00  2.250000E-02  5.000000E-01  4.032385E-12  1.778967E-09  0.000000E+00    1 
 1.150000E+00  2.250000E-02  5.000000E-01  4.030605E-12  1.753221E-09  0.000000E+00    1 
 1.250000E+00  2.250000E-02  5.000000E-01  4.028851E-12  1.727482E-09  0.000000E+00    1 
 1.350000E+00  2.250000E-02  5.000000E-01  4.027123E-12  1.701749E-09  0.000000E+00    1 
 1.450000E+00  2.250000E-02  5.000000E-01  4.025421E-12  1.676022E-09  0.000000E+00    1 
 1.550000E+00  2.250000E-02  5.000000E-01  4.023744E-12  1.650302E-09  0.000000E+00    1 
 1.650000E+00  2.250000E-02  5.000000E-01  4.022094E-12  1.624587E-09  0.000000E+00    1 
 1.750000E+00  2.250000E-02  5.000000E-01  4.020469E-12  1.598879E-09  0.000000E+00    1 
 1.850000E+00  2.250000E-02  5.000000E-01  4.018870E-12  1.573177E-09  0.000000E+00    1 
 1.950000E+00  2.250000E-02  5.000000E-01  4.017297E-12  1.547480E-09  0.000000E+00    1 
 2.100000E+00  2.250000E-02  5.000000E-01  4.014996E-12  1.508944E-09  0.000000E+00    1 
 2.300000E+00  2.250000E-02  5.000000E-01  4.012006E-12  1.457585E-09  0.000000E+00    1 
 2.500000E+00  2.250000E-02  5.000000E-01  4.009119E-12  1.406248E-09  0.000000E+00    1 
 2.700000E+00  2.250000E-02  5.000000E-01  4.006335E-12  1.354931E-09  0.000000E+00    1 
 2.900000E+00  2.250000E-02  5.000000E-01  4.003655E-12  1.303635E-09  0.000000E+00    1 
 3.100000E+00  2.250000E-02  5.000000E-01  4.001077E-12  1.252357E-09  0.000000E+00    1 
 3.300000E+00  2.250000E-02  5.000000E-01  3.998604E-12  1.201099E-09  0.000000E+00    1 
 3.500000E+00  2.250000E-02  5.000000E-01  3.996233E-12  1.149858E-09  0.000000E+00    1 
 3.700000E+00  2.250000E-02  5.000000E-01  3.993966E-12  1.098635E-09  0.000000E+00    1 
 3.900000E+00  2.250000E-02  5.000000E-01  3.991801E-12  1.047428E-09  0.000000E+00    1 
 4.500000E+00  2.250000E-02  5.000000E-01  3.986237E-12  8.938534E-10  0.000000E+00    1 
 5.500000E+00  2.250000E-02  5.000000E-01  3.978511E-12  6.382288E-10  0.000000E+00    1 
 6.500000E+00  2.250000E-02  5.000000E-01  3.973127E-12  3.828421E-10  0.000000E+00    1 
 7.500000E+00  2.250000E-02  5.000000E-01  3.970961E-12  1.276061E-10  0.000000E+00    1 
 5.000000E-03  2.750000E-02  5.000000E-01  1.430758E-12  1.597135E-09  0.000000E+00    1 
 1.500000E-02  2.750000E-02  5.000000E-01  1.849211E-12  1.595865E-09  0.000000E+00    1 
 2.500000E-02  2.750000E-02  5.000000E-01  2.460489E-12  1.594063E-09  0.000000E+00    1 
 3.500000E-02  2.750000E-02  5.000000E-01  2.732054E-12  1.592096E-09  0.000000E+00    1 
 4.500000E-02  2.750000E-02  5.000000E-01  2.840840E-12  1.590086E-09  0.000000E+00    1 
 5.500000E-02  2.750000E-02  5.000000E-01  2.881883E-12  1.588068E-09  0.000000E+00    1 
 6.500000E-02  2.750000E-02  5.000000E-01  2.896776E-12  1.586048E-09  0.000000E+00    1 
 7.500000E-02  2.750000E-02  5.000000E-01  2.902002E-12  1.584028E-09  0.000000E+00    1 
 8.500000E-02  2.750000E-02  5.000000E-01  2.903747E-12  1.582008E-09  0.000000E+00    1 
 9.500000E-02  2.750000E-02  5.000000E-01  2.904263E-12  1.579989E-09  0.000000E+00    1 
 1.100000E-01  2.750000E-02  5.000000E-01  2.904268E-12  1.576960E-09  0.000000E+00    1 
 1.300000E-01  2.750000E-02  5.000000E-01  2.904020E-12  1.572922E-09  0.000000E+00    1 
 1.500000E-01  2.750000E-02  5.000000E-01  2.903705E-12  1.568884E-09  0.000000E+00    1 
 1.700000E-01  2.750000E-02  5.000000E-01  2.903381E-12  1.564847E-09  0.000000E+00    1 
 1.900000E-01  2.750000E-02  5.000000E-01  2.903057E-12  1.560809E-09  0.000000E+00    1 
 2.100000E-01  2.750000E-02  5.000000E-01  2.902733E-12  1.556772E-09  0.000000E+00    1 
 2.300000E-01  2.750000E-02  5.000000E-01  2.902410E-12  1.552736E-09  0.000000E+00    1 
 2.500000E-01  2.750000E-02  5.000000E-01  2.902087E-12  1.548700E-09  0.000000E+00    1 
 2.700000E-01  2.750000E-02  5.000000E-01  2.901766E-12  1.544664E-09  0.000000E+00    1 
 2.900000E-01  2.750000E-02  5.000000E-01  2.901445E-12  1.540628E-09  0.000000E+00    1 
 3.250000E-01  2.750000E-02  5.000000E-01  2.900886E-12  1.533566E-09  0.000000E+00    1 
 3.750000E-01  2.750000E-02  5.000000E-01  2.900092E-12  1.523479E-09  0.000000E+00    1 
 4.250000E-01  2.750000E-02  5.000000E-01  2.899302E-12  1.513395E-09  0.000000E+00    1 
 4.750000E-01  2.750000E-02  5.000000E-01  2.898518E-12  1.503312E-09  0.000000E+00    1 
 5.250000E-01  2.750000E-02  5.000000E-01  2.897740E-12  1.493231E-09  0.000000E+00    1 
 5.750000E-01  2.750000E-02  5.000000E-01  2.896966E-12  1.483152E-09  0.000000E+00    1 
 6.250000E-01  2.750000E-02  5.000000E-01  2.896198E-12  1.473075E-09  0.000000E+00    1 
 6.750000E-01  2.750000E-02  5.000000E-01  2.895435E-12  1.462999E-09  0.000000E+00    1 
 7.250000E-01  2.750000E-02  5.000000E-01  2.894677E-12  1.452926E-09  0.000000E+00    1 
 7.750000E-01  2.750000E-02  5.000000E-01  2.893924E-12  1.442854E-09  0.000000E+00    1 
 8.250000E-01  2.750000E-02  5.000000E-01  2.893176E-12  1.432784E-09  0.000000E+00    1 
 8.750000E-01  2.750000E-02  5.000000E-01  2.892434E-12  1.422716E-09  0.000000E+00    1 
 9.250000E-01  2.750000E-02  5.000000E-01  2.891697E-12  1.412649E-09  0.000000E+00    1 
 9.750000E-01  2.750000E-02  5.000000E-01  2.890966E-12  1.402584E-09  0.000000E+00    1 
 1.050000E+00  2.750000E-02  5.000000E-01  2.889880E-12  1.387490E-09  0.000000E+00    1 
 1.150000E+00  2.750000E-02  5.000000E-01  2.888448E-12  1.367371E-09  0.000000E+00    1 
 1.250000E+00  2.750000E-02  5.000000E-01  2.887036E-12  1.347258E-09  0.000000E+00    1 
 1.350000E+00  2.750000E-02  5.000000E-01  2.885646E-12  1.327152E-09  0.000000E+00    1 
 1.450000E+00  2.750000E-02  5.000000E-01  2.884276E-12  1.307053E-09  0.000000E+00    1 
 1.550000E+00  2.750000E-02  5.000000E-01  2.882928E-12  1.286961E-09  0.000000E+00    1 
 1.650000E+00  2.750000E-02  5.000000E-01  2.881600E-12  1.266874E-09  0.000000E+00    1 