TITLE = "  1.00000E+02 [d]"
VARIABLES="X [m]","Y [m]","Z [m]","Liquid Pressure [Pa]","Liquid Saturation","Total Tracer_conservative [M]","Total Tracer_decay [M]","Total Tracer_sorbing [M]","Material ID"
ZONE T="1.00000E+02", STRANDID=1, SOLUTIONTIME=1.00000E+02, I=58, J=38, K=1, DATAPACKING=POINT
 5.000000E-03  2.500000E-03  5.000000E-01  1.131223E+05  1.000000E+00  9.963829E-01  9.963398E-01  9.962761E-01    2 
 1.500000E-02  2.500000E-03  5.000000E-01  1.131120E+05  1.000000E+00  9.892339E-01  9.891071E-01  9.889165E-01    2 
 2.500000E-02  2.500000E-03  5.000000E-01  1.131017E+05  1.000000E+00  9.820982E-01  9.818894E-01  9.815712E-01    2 
 3.500000E-02  2.500000E-03  5.000000E-01  1.130914E+05  1.000000E+00  9.749756E-01  9.746867E-01  9.742400E-01    2 
 4.500000E-02  2.500000E-03  5.000000E-01  1.130811E+05  1.000000E+00  9.678663E-01  9.674989E-01  9.669232E-01    2 
 5.500000E-02  2.500000E-03  5.000000E-01  1.130708E+05  1.000000E+00  9.607705E-01  9.603264E-01  9.596210E-01    2 
 6.500000E-02  2.500000E-03  5.000000E-01  1.130605E+05  1.000000E+00  9.536886E-01  9.531694E-01  9.523338E-01    2 
 7.500000E-02  2.500000E-03  5.000000E-01  1.130502E+05  1.000000E+00  9.466208E-01  9.460281E-01  9.450619E-01    2 
 8.500000E-02  2.500000E-03  5.000000E-01  1.130399E+05  1.000000E+00  9.395675E-01  9.389030E-01  9.378055E-01    2 
 9.500000E-02  2.500000E-03  5.000000E-01  1.130296E+05  1.000000E+00  9.325289E-01  9.317942E-01  9.305651E-01    2 
 1.100000E-01  2.500000E-03  5.000000E-01  1.130142E+05  1.000000E+00  9.219935E-01  9.211558E-01  9.197289E-01    2 
 1.300000E-01  2.500000E-03  5.000000E-01  1.129936E+05  1.000000E+00  9.081464E-01  9.071790E-01  9.054897E-01    2 
 1.500000E-01  2.500000E-03  5.000000E-01  1.129730E+05  1.000000E+00  8.943681E-01  8.932769E-01  8.913246E-01    2 
 1.700000E-01  2.500000E-03  5.000000E-01  1.129524E+05  1.000000E+00  8.806608E-01  8.794518E-01  8.772363E-01    2 
 1.900000E-01  2.500000E-03  5.000000E-01  1.129318E+05  1.000000E+00  8.670268E-01  8.657057E-01  8.632270E-01    2 
 2.100000E-01  2.500000E-03  5.000000E-01  1.129112E+05  1.000000E+00  8.534680E-01  8.520405E-01  8.492990E-01    2 
 2.300000E-01  2.500000E-03  5.000000E-01  1.128906E+05  1.000000E+00  8.399866E-01  8.384579E-01  8.354545E-01    2 
 2.500000E-01  2.500000E-03  5.000000E-01  1.128700E+05  1.000000E+00  8.265843E-01  8.249598E-01  8.216954E-01    2 
 2.700000E-01  2.500000E-03  5.000000E-01  1.128494E+05  1.000000E+00  8.132630E-01  8.115477E-01  8.080239E-01    2 
 2.900000E-01  2.500000E-03  5.000000E-01  1.128288E+05  1.000000E+00  8.000243E-01  7.982233E-01  7.944416E-01    2 
 3.250000E-01  2.500000E-03  5.000000E-01  1.127928E+05  1.000000E+00  7.770040E-01  7.750613E-01  7.708319E-01    2 
 3.750000E-01  2.500000E-03  5.000000E-01  1.127413E+05  1.000000E+00  7.456203E-01  7.435088E-01  7.386738E-01    2 
 4.250000E-01  2.500000E-03  5.000000E-01  1.126898E+05  1.000000E+00  7.148784E-01  7.126243E-01  7.072042E-01    2 
 4.750000E-01  2.500000E-03  5.000000E-01  1.126383E+05  1.000000E+00  6.848024E-01  6.824298E-01  6.764485E-01    2 
 5.250000E-01  2.500000E-03  5.000000E-01  1.125868E+05  1.000000E+00  6.554129E-01  6.529441E-01  6.464286E-01    2 
 5.750000E-01  2.500000E-03  5.000000E-01  1.125353E+05  1.000000E+00  6.267277E-01  6.241832E-01  6.171630E-01    2 
 6.250000E-01  2.500000E-03  5.000000E-01  1.124838E+05  1.000000E+00  5.987616E-01  5.961602E-01  5.886669E-01    2 
 6.750000E-01  2.500000E-03  5.000000E-01  1.124323E+05  1.000000E+00  5.715259E-01  5.688848E-01  5.609519E-01    2 
 7.250000E-01  2.500000E-03  5.000000E-01  1.123808E+05  1.000000E+00  5.450291E-01  5.423641E-01  5.340264E-01    2 
 7.750000E-01  2.500000E-03  5.000000E-01  1.123293E+05  1.000000E+00  5.192767E-01  5.166018E-01  5.078953E-01    2 
 8.250000E-01  2.500000E-03  5.000000E-01  1.122778E+05  1.000000E+00  4.942709E-01  4.915990E-01  4.825603E-01    2 
 8.750000E-01  2.500000E-03  5.000000E-01  1.122263E+05  1.000000E+00  4.700108E-01  4.673536E-01  4.580196E-01    2 
 9.250000E-01  2.500000E-03  5.000000E-01  1.121748E+05  1.000000E+00  4.464928E-01  4.438605E-01  4.342684E-01    2 
 9.750000E-01  2.500000E-03  5.000000E-01  1.121233E+05  1.000000E+00  4.237098E-01  4.211117E-01  4.112983E-01    2 
 1.050000E+00  2.500000E-03  5.000000E-01  1.120460E+05  1.000000E+00  3.906232E-01  3.880885E-01  3.779976E-01    2 
 1.150000E+00  2.500000E-03  5.000000E-01  1.119431E+05  1.000000E+00  3.513674E-01  3.489382E-01  3.386295E-01    2 
 1.250000E+00  2.500000E-03  5.000000E-01  1.118401E+05  1.000000E+00  3.150837E-01  3.127778E-01  3.023801E-01    2 
 1.350000E+00  2.500000E-03  5.000000E-01  1.117371E+05  1.000000E+00  2.816811E-01  2.795108E-01  2.691428E-01    2 
 1.450000E+00  2.500000E-03  5.000000E-01  1.116341E+05  1.000000E+00  2.510484E-01  2.490214E-01  2.387903E-01    2 
 1.550000E+00  2.500000E-03  5.000000E-01  1.115311E+05  1.000000E+00  2.230575E-01  2.211775E-01  2.111780E-01    2 
 1.650000E+00  2.500000E-03  5.000000E-01  1.114281E+05  1.000000E+00  1.975659E-01  1.958338E-01  1.861476E-01    2 
 1.750000E+00  2.500000E-03  5.000000E-01  1.113251E+05  1.000000E+00  1.744195E-01  1.728335E-01  1.635297E-01    2 
 1.850000E+00  2.500000E-03  5.000000E-01  1.112221E+05  1.000000E+00  1.534543E-01  1.520109E-01  1.431461E-01    2 
 1.950000E+00  2.500000E-03  5.000000E-01  1.111192E+05  1.000000E+00  1.344975E-01  1.331918E-01  1.248112E-01    2 
 2.100000E+00  2.500000E-03  5.000000E-01  1.109647E+05  1.000000E+00  1.088033E-01  1.076957E-01  1.000932E-01    2 
 2.300000E+00  2.500000E-03  5.000000E-01  1.107587E+05  1.000000E+00  8.337882E-02  8.248597E-02  7.588647E-02    2 
 2.500000E+00  2.500000E-03  5.000000E-01  1.105528E+05  1.000000E+00  6.331250E-02  6.260286E-02  5.698688E-02    2 
 2.700000E+00  2.500000E-03  5.000000E-01  1.103468E+05  1.000000E+00  4.765483E-02  4.709795E-02  4.240438E-02    2 
 2.900000E+00  2.500000E-03  5.000000E-01  1.101408E+05  1.000000E+00  3.557100E-02  3.513907E-02  3.128025E-02    2 
 3.100000E+00  2.500000E-03  5.000000E-01  1.099349E+05  1.000000E+00  2.634589E-02  2.601437E-02  2.288864E-02    2 
 3.300000E+00  2.500000E-03  5.000000E-01  1.097289E+05  1.000000E+00  1.938193E-02  1.912980E-02  1.663097E-02    2 
 3.500000E+00  2.500000E-03  5.000000E-01  1.095230E+05  1.000000E+00  1.419305E-02  1.400259E-02  1.202659E-02    2 
 3.700000E+00  2.500000E-03  5.000000E-01  1.093170E+05  1.000000E+00  1.039772E-02  1.025419E-02  8.702989E-03    2 
 3.900000E+00  2.500000E-03  5.000000E-01  1.091111E+05  1.000000E+00  7.714494E-03  7.605523E-03  6.388782E-03    2 
 4.500000E+00  2.500000E-03  5.000000E-01  1.084933E+05  1.000000E+00  2.462107E-03  2.424697E-03  1.963206E-03    2 
 5.500000E+00  2.500000E-03  5.000000E-01  1.074636E+05  1.000000E+00  6.484737E-04  6.379316E-04  4.967406E-04    2 
 6.500000E+00  2.500000E-03  5.000000E-01  1.064339E+05  1.000000E+00  1.638789E-04  1.610480E-04  1.205990E-04    2 
 7.500000E+00  2.500000E-03  5.000000E-01  1.054043E+05  1.000000E+00  4.246970E-05  4.169250E-05  2.998013E-05    2 
 5.000000E-03  7.500000E-03  5.000000E-01  1.130873E+05  1.000000E+00  9.034668E-01  9.021087E-01  9.002991E-01    1 
 1.500000E-02  7.500000E-03  5.000000E-01  1.130791E+05  1.000000E+00  8.976236E-01  8.962110E-01  8.942770E-01    1 
 2.500000E-02  7.500000E-03  5.000000E-01  1.130697E+05  1.000000E+00  8.909293E-01  8.894595E-01  8.873812E-01    1 
 3.500000E-02  7.500000E-03  5.000000E-01  1.130600E+05  1.000000E+00  8.840396E-01  8.825144E-01  8.802893E-01    1 
 4.500000E-02  7.500000E-03  5.000000E-01  1.130501E+05  1.000000E+00  8.771005E-01  8.755217E-01  8.731506E-01    1 
 5.500000E-02  7.500000E-03  5.000000E-01  1.130401E+05  1.000000E+00  8.701575E-01  8.685267E-01  8.660107E-01    1 
 6.500000E-02  7.500000E-03  5.000000E-01  1.130301E+05  1.000000E+00  8.632264E-01  8.615452E-01  8.588852E-01    1 
 7.500000E-02  7.500000E-03  5.000000E-01  1.130201E+05  1.000000E+00  8.563130E-01  8.545826E-01  8.517793E-01    1 
 8.500000E-02  7.500000E-03  5.000000E-01  1.130100E+05  1.000000E+00  8.494194E-01  8.476412E-01  8.446950E-01    1 
 9.500000E-02  7.500000E-03  5.000000E-01  1.129998E+05  1.000000E+00  8.425469E-01  8.407223E-01  8.376336E-01    1 
 1.100000E-01  7.500000E-03  5.000000E-01  1.129846E+05  1.000000E+00  8.322742E-01  8.303819E-01  8.270803E-01    1 
 1.300000E-01  7.500000E-03  5.000000E-01  1.129643E+05  1.000000E+00  8.187805E-01  8.168040E-01  8.132230E-01    1 
 1.500000E-01  7.500000E-03  5.000000E-01  1.129440E+05  1.000000E+00  8.053841E-01  8.033283E-01  7.994705E-01    1 
 1.700000E-01  7.500000E-03  5.000000E-01  1.129236E+05  1.000000E+00  7.920812E-01  7.899509E-01  7.858190E-01    1 
 1.900000E-01  7.500000E-03  5.000000E-01  1.129032E+05  1.000000E+00  7.788730E-01  7.766728E-01  7.722698E-01    1 
 2.100000E-01  7.500000E-03  5.000000E-01  1.128827E+05  1.000000E+00  7.657609E-01  7.634954E-01  7.588245E-01    1 
 2.300000E-01  7.500000E-03  5.000000E-01  1.128623E+05  1.000000E+00  7.527466E-01  7.504202E-01  7.454848E-01    1 
 2.500000E-01  7.500000E-03  5.000000E-01  1.128418E+05  1.000000E+00  7.398315E-01  7.374483E-01  7.322523E-01    1 
 2.700000E-01  7.500000E-03  5.000000E-01  1.128214E+05  1.000000E+00  7.270169E-01  7.245812E-01  7.191285E-01    1 
 2.900000E-01  7.500000E-03  5.000000E-01  1.128009E+05  1.000000E+00  7.143045E-01  7.118202E-01  7.061150E-01    1 
 3.250000E-01  7.500000E-03  5.000000E-01  1.127651E+05  1.000000E+00  6.922464E-01  6.896837E-01  6.835443E-01    1 
 3.750000E-01  7.500000E-03  5.000000E-01  1.127139E+05  1.000000E+00  6.622819E-01  6.596325E-01  6.529203E-01    1 
 4.250000E-01  7.500000E-03  5.000000E-01  1.126626E+05  1.000000E+00  6.330651E-01  6.303494E-01  6.230974E-01    1 
 4.750000E-01  7.500000E-03  5.000000E-01  1.126114E+05  1.000000E+00  6.046035E-01  6.018399E-01  5.940835E-01    1 
 5.250000E-01  7.500000E-03  5.000000E-01  1.125601E+05  1.000000E+00  5.769099E-01  5.741154E-01  5.658918E-01    1 
 5.750000E-01  7.500000E-03  5.000000E-01  1.125088E+05  1.000000E+00  5.499945E-01  5.471846E-01  5.385321E-01    1 
 6.250000E-01  7.500000E-03  5.000000E-01  1.124575E+05  1.000000E+00  5.238643E-01  5.210530E-01  5.120112E-01    1 
 6.750000E-01  7.500000E-03  5.000000E-01  1.124062E+05  1.000000E+00  4.985235E-01  4.957232E-01  4.863322E-01    1 
 7.250000E-01  7.500000E-03  5.000000E-01  1.123549E+05  1.000000E+00  4.739732E-01  4.711952E-01  4.614954E-01    1 
 7.750000E-01  7.500000E-03  5.000000E-01  1.123036E+05  1.000000E+00  4.502116E-01  4.474659E-01  4.374977E-01    1 
 8.250000E-01  7.500000E-03  5.000000E-01  1.122523E+05  1.000000E+00  4.272341E-01  4.245296E-01  4.143331E-01    1 
 8.750000E-01  7.500000E-03  5.000000E-01  1.122010E+05  1.000000E+00  4.050333E-01  4.023778E-01  3.919925E-01    1 
 9.250000E-01  7.500000E-03  5.000000E-01  1.121497E+05  1.000000E+00  3.835990E-01  3.809993E-01  3.704638E-01    1 
 9.750000E-01  7.500000E-03  5.000000E-01  1.120984E+05  1.000000E+00  3.629183E-01  3.603804E-01  3.497323E-01    1 
 1.050000E+00  7.500000E-03  5.000000E-01  1.120214E+05  1.000000E+00  3.330082E-01  3.305705E-01  3.198079E-01    1 
 1.150000E+00  7.500000E-03  5.000000E-01  1.119188E+05  1.000000E+00  2.977868E-01  2.954907E-01  2.847127E-01    1 
 1.250000E+00  7.500000E-03  5.000000E-01  1.118162E+05  1.000000E+00  2.654836E-01  2.633376E-01  2.526622E-01    1 
 1.350000E+00  7.500000E-03  5.000000E-01  1.117135E+05  1.000000E+00  2.359695E-01  2.339778E-01  2.235096E-01    1 
 1.450000E+00  7.500000E-03  5.000000E-01  1.116109E+05  1.000000E+00  2.091046E-01  2.072681E-01  1.970972E-01    1 
 1.550000E+00  7.500000E-03  5.000000E-01  1.115083E+05  1.000000E+00  1.847375E-01  1.830541E-01  1.732568E-01    1 
 1.650000E+00  7.500000E-03  5.000000E-01  1.114056E+05  1.000000E+00  1.627079E-01  1.611739E-01  1.518123E-01    1 
 1.750000E+00  7.500000E-03  5.000000E-01  1.113030E+05  1.000000E+00  1.428496E-01  1.414592E-01  1.325827E-01    1 
 1.850000E+00  7.500000E-03  5.000000E-01  1.112004E+05  1.000000E+00  1.249913E-01  1.237380E-01  1.153837E-01    1 
 1.950000E+00  7.500000E-03  5.000000E-01  1.110977E+05  1.000000E+00  1.089581E-01  1.078346E-01  1.000292E-01    1 
 2.100000E+00  7.500000E-03  5.000000E-01  1.109438E+05  1.000000E+00  8.737941E-02  8.643936E-02  7.948296E-02    1 
 2.300000E+00  7.500000E-03  5.000000E-01  1.107385E+05  1.000000E+00  6.629100E-02  6.554459E-02  5.962394E-02    1 
 2.500000E+00  7.500000E-03  5.000000E-01  1.105333E+05  1.000000E+00  4.984758E-02  4.926249E-02  4.431544E-02    1 
 2.700000E+00  7.500000E-03  5.000000E-01  1.103280E+05  1.000000E+00  3.716541E-02  3.671216E-02  3.264747E-02    1 
 2.900000E+00  7.500000E-03  5.000000E-01  1.101228E+05  1.000000E+00  2.748705E-02  2.713970E-02  2.385081E-02    1 
 3.100000E+00  7.500000E-03  5.000000E-01  1.099175E+05  1.000000E+00  2.017752E-02  1.991393E-02  1.728947E-02    1 
 3.300000E+00  7.500000E-03  5.000000E-01  1.097123E+05  1.000000E+00  1.471640E-02  1.451805E-02  1.244930E-02    1 
 3.500000E+00  7.500000E-03  5.000000E-01  1.095071E+05  1.000000E+00  1.068756E-02  1.053922E-02  8.924694E-03    1 
 3.700000E+00  7.500000E-03  5.000000E-01  1.093018E+05  1.000000E+00  7.769363E-03  7.658595E-03  6.406165E-03    1 
 3.900000E+00  7.500000E-03  5.000000E-01  1.090966E+05  1.000000E+00  5.727788E-03  5.644313E-03  4.671412E-03    1 
 4.500000E+00  7.500000E-03  5.000000E-01  1.084809E+05  1.000000E+00  1.791459E-03  1.763468E-03  1.405936E-03    1 
 5.500000E+00  7.500000E-03  5.000000E-01  1.074547E+05  1.000000E+00  4.631254E-04  4.554028E-04  3.490142E-04    1 
 6.500000E+00  7.500000E-03  5.000000E-01  1.064286E+05  1.000000E+00  1.151436E-04  1.131072E-04  8.333267E-05    1 
 7.500000E+00  7.500000E-03  5.000000E-01  1.054031E+05  1.000000E+00  2.939843E-05  2.884839E-05  2.040360E-05    1 
 5.000000E-03  1.250000E-02  5.000000E-01  1.130194E+05  1.000000E+00  7.276323E-01  7.249644E-01  7.190223E-01    1 
 1.500000E-02  1.250000E-02  5.000000E-01  1.130136E+05  1.000000E+00  7.233889E-01  7.206981E-01  7.146512E-01    1 
 2.500000E-02  1.250000E-02  5.000000E-01  1.130058E+05  1.000000E+00  7.177171E-01  7.150023E-01  7.088196E-01    1 
 3.500000E-02  1.250000E-02  5.000000E-01  1.129971E+05  1.000000E+00  7.115694E-01  7.088332E-01  7.025112E-01    1 
 4.500000E-02  1.250000E-02  5.000000E-01  1.129881E+05  1.000000E+00  7.052697E-01  7.025140E-01  6.960569E-01    1 
 5.500000E-02  1.250000E-02  5.000000E-01  1.129787E+05  1.000000E+00  6.989348E-01  6.961611E-01  6.895731E-01    1 
 6.500000E-02  1.250000E-02  5.000000E-01  1.129693E+05  1.000000E+00  6.926070E-01  6.898164E-01  6.831006E-01    1 
 7.500000E-02  1.250000E-02  5.000000E-01  1.129597E+05  1.000000E+00  6.863014E-01  6.834949E-01  6.766535E-01    1 
 8.500000E-02  1.250000E-02  5.000000E-01  1.129500E+05  1.000000E+00  6.800233E-01  6.772018E-01  6.702365E-01    1 
 9.500000E-02  1.250000E-02  5.000000E-01  1.129402E+05  1.000000E+00  6.737757E-01  6.709401E-01  6.638526E-01    1 
 1.100000E-01  1.250000E-02  5.000000E-01  1.129255E+05  1.000000E+00  6.644566E-01  6.616009E-01  6.543326E-01    1 
 1.300000E-01  1.250000E-02  5.000000E-01  1.129058E+05  1.000000E+00  6.522392E-01  6.493605E-01  6.418593E-01    1 
 1.500000E-01  1.250000E-02  5.000000E-01  1.128859E+05  1.000000E+00  6.401565E-01  6.372579E-01  6.295302E-01    1 
 1.700000E-01  1.250000E-02  5.000000E-01  1.128659E+05  1.000000E+00  6.281989E-01  6.252833E-01  6.173356E-01    1 
 1.900000E-01  1.250000E-02  5.000000E-01  1.128459E+05  1.000000E+00  6.163654E-01  6.134357E-01  6.052745E-01    1 
 2.100000E-01  1.250000E-02  5.000000E-01  1.128258E+05  1.000000E+00  6.046565E-01  6.017155E-01  5.933473E-01    1 
 2.300000E-01  1.250000E-02  5.000000E-01  1.128057E+05  1.000000E+00  5.930726E-01  5.901230E-01  5.815546E-01    1 
 2.500000E-01  1.250000E-02  5.000000E-01  1.127855E+05  1.000000E+00  5.816141E-01  5.786585E-01  5.698966E-01    1 
 2.700000E-01  1.250000E-02  5.000000E-01  1.127654E+05  1.000000E+00  5.702815E-01  5.673223E-01  5.583739E-01    1 
 2.900000E-01  1.250000E-02  5.000000E-01  1.127452E+05  1.000000E+00  5.590761E-01  5.561156E-01  5.469875E-01    1 
 3.250000E-01  1.250000E-02  5.000000E-01  1.127098E+05  1.000000E+00  5.397039E-01  5.367452E-01  5.273145E-01    1 
 3.750000E-01  1.250000E-02  5.000000E-01  1.126591E+05  1.000000E+00  5.135679E-01  5.106245E-01  5.008177E-01    1 
 4.250000E-01  1.250000E-02  5.000000E-01  1.126084E+05  1.000000E+00  4.882926E-01  4.853757E-01  4.752363E-01    1 
 4.750000E-01  1.250000E-02  5.000000E-01  1.125576E+05  1.000000E+00  4.638601E-01  4.609797E-01  4.505516E-01    1 
 5.250000E-01  1.250000E-02  5.000000E-01  1.125068E+05  1.000000E+00  4.402681E-01  4.374331E-01  4.267596E-01    1 
 5.750000E-01  1.250000E-02  5.000000E-01  1.124559E+05  1.000000E+00  4.175122E-01  4.147302E-01  4.038540E-01    1 
 6.250000E-01  1.250000E-02  5.000000E-01  1.124050E+05  1.000000E+00  3.955855E-01  3.928633E-01  3.818261E-01    1 
 6.750000E-01  1.250000E-02  5.000000E-01  1.123541E+05  1.000000E+00  3.744788E-01  3.718222E-01  3.606646E-01    1 
 7.250000E-01  1.250000E-02  5.000000E-01  1.123032E+05  1.000000E+00  3.541807E-01  3.515945E-01  3.403557E-01    1 
 7.750000E-01  1.250000E-02  5.000000E-01  1.122523E+05  1.000000E+00  3.346775E-01  3.321658E-01  3.208836E-01    1 
 8.250000E-01  1.250000E-02  5.000000E-01  1.122014E+05  1.000000E+00  3.159536E-01  3.135198E-01  3.022301E-01    1 
 8.750000E-01  1.250000E-02  5.000000E-01  1.121505E+05  1.000000E+00  2.979914E-01  2.956381E-01  2.843753E-01    1 
 9.250000E-01  1.250000E-02  5.000000E-01  1.120995E+05  1.000000E+00  2.807712E-01  2.785006E-01  2.672970E-01    1 
 9.750000E-01  1.250000E-02  5.000000E-01  1.120486E+05  1.000000E+00  2.642719E-01  2.620854E-01  2.509714E-01    1 
 1.050000E+00  1.250000E-02  5.000000E-01  1.119722E+05  1.000000E+00  2.405767E-01  2.385179E-01  2.275804E-01    1 
 1.150000E+00  1.250000E-02  5.000000E-01  1.118702E+05  1.000000E+00  2.130301E-01  2.111345E-01  2.005171E-01    1 
 1.250000E+00  1.250000E-02  5.000000E-01  1.117683E+05  1.000000E+00  1.880944E-01  1.863591E-01  1.761392E-01    1 
 1.350000E+00  1.250000E-02  5.000000E-01  1.116664E+05  1.000000E+00  1.655988E-01  1.640189E-01  1.542589E-01    1 
 1.450000E+00  1.250000E-02  5.000000E-01  1.115645E+05  1.000000E+00  1.453755E-01  1.439443E-01  1.346924E-01    1 
 1.550000E+00  1.250000E-02  5.000000E-01  1.114626E+05  1.000000E+00  1.272550E-01  1.259649E-01  1.172560E-01    1 
 1.650000E+00  1.250000E-02  5.000000E-01  1.113607E+05  1.000000E+00  1.110684E-01  1.099108E-01  1.017679E-01    1 
 1.750000E+00  1.250000E-02  5.000000E-01  1.112587E+05  1.000000E+00  9.664829E-02  9.561446E-02  8.805011E-02    1 
 1.850000E+00  1.250000E-02  5.000000E-01  1.111568E+05  1.000000E+00  8.383036E-02  8.291131E-02  7.592922E-02    1 
 1.950000E+00  1.250000E-02  5.000000E-01  1.110549E+05  1.000000E+00  7.245340E-02  7.164034E-02  6.523702E-02    1 
 2.100000E+00  1.250000E-02  5.000000E-01  1.109020E+05  1.000000E+00  5.731366E-02  5.664695E-02  5.109795E-02    1 
 2.300000E+00  1.250000E-02  5.000000E-01  1.106982E+05  1.000000E+00  4.280625E-02  4.228845E-02  3.770947E-02    1 
 2.500000E+00  1.250000E-02  5.000000E-01  1.104943E+05  1.000000E+00  3.170693E-02  3.130926E-02  2.759064E-02    1 
 2.700000E+00  1.250000E-02  5.000000E-01  1.102905E+05  1.000000E+00  2.329964E-02  2.299737E-02  2.002154E-02    1 
 2.900000E+00  1.250000E-02  5.000000E-01  1.100867E+05  1.000000E+00  1.699320E-02  1.676565E-02  1.441614E-02    1 
 3.100000E+00  1.250000E-02  5.000000E-01  1.098828E+05  1.000000E+00  1.230785E-02  1.213802E-02  1.030562E-02    1 
 3.300000E+00  1.250000E-02  5.000000E-01  1.096790E+05  1.000000E+00  8.861574E-03  8.735773E-03  7.321965E-03    1 
 3.500000E+00  1.250000E-02  5.000000E-01  1.094752E+05  1.000000E+00  6.356758E-03  6.264052E-03  5.182391E-03    1 
 3.700000E+00  1.250000E-02  5.000000E-01  1.092714E+05  1.000000E+00  4.568540E-03  4.500234E-03  3.676093E-03    1 
 3.900000E+00  1.250000E-02  5.000000E-01  1.090675E+05  1.000000E+00  3.336601E-03  3.285683E-03  2.654711E-03    1 
 4.500000E+00  1.250000E-02  5.000000E-01  1.084561E+05  1.000000E+00  1.013624E-03  9.971189E-04  7.756805E-04    1 
 5.500000E+00  1.250000E-02  5.000000E-01  1.074370E+05  1.000000E+00  2.551710E-04  2.507529E-04  1.874506E-04    1 
 6.500000E+00  1.250000E-02  5.000000E-01  1.064181E+05  1.000000E+00  6.199338E-05  6.085802E-05  4.372535E-05    1 
 7.500000E+00  1.250000E-02  5.000000E-01  1.054008E+05  1.000000E+00  1.550017E-05  1.520053E-05  1.048235E-05    1 
 5.000000E-03  1.750000E-02  5.000000E-01  1.129529E+05  1.000000E+00  5.665619E-01  5.634656E-01  5.538893E-01    1 
 1.500000E-02  1.750000E-02  5.000000E-01  1.129485E+05  1.000000E+00  5.634173E-01  5.603150E-01  5.506628E-01    1 
 2.500000E-02  1.750000E-02  5.000000E-01  1.129420E+05  1.000000E+00  5.587824E-01  5.556765E-01  5.459223E-01    1 
 3.500000E-02  1.750000E-02  5.000000E-01  1.129343E+05  1.000000E+00  5.535485E-01  5.504423E-01  5.405864E-01    1 
 4.500000E-02  1.750000E-02  5.000000E-01  1.129261E+05  1.000000E+00  5.481017E-01  5.449975E-01  5.350470E-01    1 
 5.500000E-02  1.750000E-02  5.000000E-01  1.129174E+05  1.000000E+00  5.425979E-01  5.394970E-01  5.294585E-01    1 
 6.500000E-02  1.750000E-02  5.000000E-01  1.129085E+05  1.000000E+00  5.370964E-01  5.339998E-01  5.238778E-01    1 
 7.500000E-02  1.750000E-02  5.000000E-01  1.128993E+05  1.000000E+00  5.316189E-01  5.285271E-01  5.183249E-01    1 
 8.500000E-02  1.750000E-02  5.000000E-01  1.128900E+05  1.000000E+00  5.261731E-01  5.230867E-01  5.128066E-01    1 
 9.500000E-02  1.750000E-02  5.000000E-01  1.128807E+05  1.000000E+00  5.207628E-01  5.176823E-01  5.073264E-01    1 
 1.100000E-01  1.750000E-02  5.000000E-01  1.128664E+05  1.000000E+00  5.127071E-01  5.096360E-01  4.991696E-01    1 
 1.300000E-01  1.750000E-02  5.000000E-01  1.128472E+05  1.000000E+00  5.021704E-01  4.991137E-01  4.885092E-01    1 
 1.500000E-01  1.750000E-02  5.000000E-01  1.128278E+05  1.000000E+00  4.917864E-01  4.887457E-01  4.780109E-01    1 
 1.700000E-01  1.750000E-02  5.000000E-01  1.128083E+05  1.000000E+00  4.815431E-01  4.785201E-01  4.676625E-01    1 
 1.900000E-01  1.750000E-02  5.000000E-01  1.127886E+05  1.000000E+00  4.714382E-01  4.684343E-01  4.574616E-01    1 
 2.100000E-01  1.750000E-02  5.000000E-01  1.127689E+05  1.000000E+00  4.614710E-01  4.584876E-01  4.474074E-01    1 
 2.300000E-01  1.750000E-02  5.000000E-01  1.127491E+05  1.000000E+00  4.516409E-01  4.486794E-01  4.374991E-01    1 
 2.500000E-01  1.750000E-02  5.000000E-01  1.127293E+05  1.000000E+00  4.419473E-01  4.390090E-01  4.277362E-01    1 
 2.700000E-01  1.750000E-02  5.000000E-01  1.127093E+05  1.000000E+00  4.323898E-01  4.294758E-01  4.181178E-01    1 
 2.900000E-01  1.750000E-02  5.000000E-01  1.126894E+05  1.000000E+00  4.229691E-01  4.200807E-01  4.086447E-01    1 
 3.250000E-01  1.750000E-02  5.000000E-01  1.126544E+05  1.000000E+00  4.067374E-01  4.038954E-01  3.923352E-01    1 
 3.750000E-01  1.750000E-02  5.000000E-01  1.126043E+05  1.000000E+00  3.849857E-01  3.822143E-01  3.705262E-01    1 
 4.250000E-01  1.750000E-02  5.000000E-01  1.125541E+05  1.000000E+00  3.641127E-01  3.614164E-01  3.496415E-01    1 
 4.750000E-01  1.750000E-02  5.000000E-01  1.125038E+05  1.000000E+00  3.440840E-01  3.414666E-01  3.296449E-01    1 
 5.250000E-01  1.750000E-02  5.000000E-01  1.124534E+05  1.000000E+00  3.248845E-01  3.223493E-01  3.105188E-01    1 
 5.750000E-01  1.750000E-02  5.000000E-01  1.124030E+05  1.000000E+00  3.064985E-01  3.040478E-01  2.922448E-01    1 
 6.250000E-01  1.750000E-02  5.000000E-01  1.123526E+05  1.000000E+00  2.889085E-01  2.865441E-01  2.748026E-01    1 
 6.750000E-01  1.750000E-02  5.000000E-01  1.123021E+05  1.000000E+00  2.720955E-01  2.698187E-01  2.581705E-01    1 
 7.250000E-01  1.750000E-02  5.000000E-01  1.122515E+05  1.000000E+00  2.560392E-01  2.538507E-01  2.423258E-01    1 
 7.750000E-01  1.750000E-02  5.000000E-01  1.122010E+05  1.000000E+00  2.407182E-01  2.386181E-01  2.272440E-01    1 
 8.250000E-01  1.750000E-02  5.000000E-01  1.121505E+05  1.000000E+00  2.261096E-01  2.240980E-01  2.129000E-01    1 
 8.750000E-01  1.750000E-02  5.000000E-01  1.120999E+05  1.000000E+00  2.121898E-01  2.102660E-01  1.992674E-01    1 
 9.250000E-01  1.750000E-02  5.000000E-01  1.120493E+05  1.000000E+00  1.989340E-01  1.970972E-01  1.863190E-01    1 
 9.750000E-01  1.750000E-02  5.000000E-01  1.119988E+05  1.000000E+00  1.863165E-01  1.845656E-01  1.740267E-01    1 
 1.050000E+00  1.750000E-02  5.000000E-01  1.119229E+05  1.000000E+00  1.683158E-01  1.666917E-01  1.565366E-01    1 
 1.150000E+00  1.750000E-02  5.000000E-01  1.118217E+05  1.000000E+00  1.476420E-01  1.461728E-01  1.365575E-01    1 
 1.250000E+00  1.750000E-02  5.000000E-01  1.117205E+05  1.000000E+00  1.291564E-01  1.278334E-01  1.187910E-01    1 
 1.350000E+00  1.750000E-02  5.000000E-01  1.116193E+05  1.000000E+00  1.126772E-01  1.114911E-01  1.030423E-01    1 
 1.450000E+00  1.750000E-02  5.000000E-01  1.115181E+05  1.000000E+00  9.803436E-02  9.697548E-02  8.912984E-02    1 
 1.550000E+00  1.750000E-02  5.000000E-01  1.114169E+05  1.000000E+00  8.506327E-02  8.412180E-02  7.687913E-02    1 
 1.650000E+00  1.750000E-02  5.000000E-01  1.113157E+05  1.000000E+00  7.360572E-02  7.277198E-02  6.612401E-02    1 
 1.750000E+00  1.750000E-02  5.000000E-01  1.112145E+05  1.000000E+00  6.351055E-02  6.277514E-02  5.670712E-02    1 
 1.850000E+00  1.750000E-02  5.000000E-01  1.111133E+05  1.000000E+00  5.463385E-02  5.398782E-02  4.848009E-02    1 
 1.950000E+00  1.750000E-02  5.000000E-01  1.110121E+05  1.000000E+00  4.683886E-02  4.627379E-02  4.130324E-02    1 
 2.100000E+00  1.750000E-02  5.000000E-01  1.108602E+05  1.000000E+00  3.657494E-02  3.611968E-02  3.191690E-02    1 
 2.300000E+00  1.750000E-02  5.000000E-01  1.106578E+05  1.000000E+00  2.691797E-02  2.657121E-02  2.319620E-02    1 
 2.500000E+00  1.750000E-02  5.000000E-01  1.104554E+05  1.000000E+00  1.965860E-02  1.939706E-02  1.672443E-02    1 
 2.700000E+00  1.750000E-02  5.000000E-01  1.102530E+05  1.000000E+00  1.425115E-02  1.405571E-02  1.196656E-02    1 
 2.900000E+00  1.750000E-02  5.000000E-01  1.100506E+05  1.000000E+00  1.025913E-02  1.011432E-02  8.500661E-03    1 
 3.100000E+00  1.750000E-02  5.000000E-01  1.098481E+05  1.000000E+00  7.337949E-03  7.231496E-03  5.998593E-03    1 
 3.300000E+00  1.750000E-02  5.000000E-01  1.096457E+05  1.000000E+00  5.220104E-03  5.142363E-03  4.209265E-03    1 
 3.500000E+00  1.750000E-02  5.000000E-01  1.094433E+05  1.000000E+00  3.701833E-03  3.645305E-03  2.944145E-03    1 
 3.700000E+00  1.750000E-02  5.000000E-01  1.092409E+05  1.000000E+00  2.632259E-03  2.591116E-03  2.065527E-03    1 
 3.900000E+00  1.750000E-02  5.000000E-01  1.090385E+05  1.000000E+00  1.905716E-03  1.875350E-03  1.478226E-03    1 
 4.500000E+00  1.750000E-02  5.000000E-01  1.084313E+05  1.000000E+00  5.636291E-04  5.540841E-04  4.203583E-04    1 
 5.500000E+00  1.750000E-02  5.000000E-01  1.074193E+05  1.000000E+00  1.384601E-04  1.359745E-04  9.910746E-05    1 
 6.500000E+00  1.750000E-02  5.000000E-01  1.064075E+05  1.000000E+00  3.292976E-05  3.230597E-05  2.262751E-05    1 
 7.500000E+00  1.750000E-02  5.000000E-01  1.053985E+05  1.000000E+00  8.075645E-06  7.914487E-06  5.320022E-06    1 
 5.000000E-03  2.250000E-02  5.000000E-01  1.128874E+05  1.000000E+00  4.263590E-01  4.233819E-01  4.114382E-01    1 
 1.500000E-02  2.250000E-02  5.000000E-01  1.128841E+05  1.000000E+00  4.240278E-01  4.210532E-01  4.090646E-01    1 
 2.500000E-02  2.250000E-02  5.000000E-01  1.128785E+05  1.000000E+00  4.203707E-01  4.174034E-01  4.053567E-01    1 
 3.500000E-02  2.250000E-02  5.000000E-01  1.128718E+05  1.000000E+00  4.161108E-01  4.131546E-01  4.010557E-01    1 
 4.500000E-02  2.250000E-02  5.000000E-01  1.128642E+05  1.000000E+00  4.116190E-01  4.086764E-01  3.965354E-01    1 
 5.500000E-02  2.250000E-02  5.000000E-01  1.128561E+05  1.000000E+00  4.070597E-01  4.041320E-01  3.919569E-01    1 
 6.500000E-02  2.250000E-02  5.000000E-01  1.128477E+05  1.000000E+00  4.024991E-01  3.995868E-01  3.873829E-01    1 
 7.500000E-02  2.250000E-02  5.000000E-01  1.128390E+05  1.000000E+00  3.979618E-01  3.950653E-01  3.828359E-01    1 
 8.500000E-02  2.250000E-02  5.000000E-01  1.128301E+05  1.000000E+00  3.934567E-01  3.905763E-01  3.783238E-01    1 
 9.500000E-02  2.250000E-02  5.000000E-01  1.128211E+05  1.000000E+00  3.889879E-01  3.861237E-01  3.738502E-01    1 
 1.100000E-01  2.250000E-02  5.000000E-01  1.128074E+05  1.000000E+00  3.823447E-01  3.795052E-01  3.672031E-01    1 
 1.300000E-01  2.250000E-02  5.000000E-01  1.127887E+05  1.000000E+00  3.736766E-01  3.708706E-01  3.585382E-01    1 
 1.500000E-01  2.250000E-02  5.000000E-01  1.127698E+05  1.000000E+00  3.651616E-01  3.623897E-01  3.500340E-01    1 
 1.700000E-01  2.250000E-02  5.000000E-01  1.127507E+05  1.000000E+00  3.567879E-01  3.540506E-01  3.416783E-01    1 
 1.900000E-01  2.250000E-02  5.000000E-01  1.127314E+05  1.000000E+00  3.485520E-01  3.458499E-01  3.334677E-01    1 
 2.100000E-01  2.250000E-02  5.000000E-01  1.127120E+05  1.000000E+00  3.404524E-01  3.377859E-01  3.254004E-01    1 
 2.300000E-01  2.250000E-02  5.000000E-01  1.126925E+05  1.000000E+00  3.324878E-01  3.298574E-01  3.174750E-01    1 
 2.500000E-01  2.250000E-02  5.000000E-01  1.126730E+05  1.000000E+00  3.246568E-01  3.220630E-01  3.096899E-01    1 
 2.700000E-01  2.250000E-02  5.000000E-01  1.126533E+05  1.000000E+00  3.169584E-01  3.144014E-01  3.020437E-01    1 