TITLE = "  5.00000E+02 [d]"
VARIABLES="X [m]","Y [m]","Z [m]","Liquid Pressure [Pa]","Liquid Saturation","Total Tracer_conservative [M]","Total Tracer_decay [M]","Total Tracer_sorbing [M]","Material ID"
ZONE T="5.00000E+02", STRANDID=1, SOLUTIONTIME=5.00000E+02, I=58, J=38, K=1, DATAPACKING=POINT
 5.000000E-03  2.500000E-03  5.000000E-01  1.131223E+05  1.000000E+00  9.982951E-01  9.981881E-01  9.982422E-01    2 
 1.500000E-02  2.500000E-03  5.000000E-01  1.131120E+05  1.000000E+00  9.949212E-01  9.946041E-01  9.947636E-01    2 
 2.500000E-02  2.500000E-03  5.000000E-01  1.131018E+05  1.000000E+00  9.915488E-01  9.910239E-01  9.912868E-01    2 
 3.500000E-02  2.500000E-03  5.000000E-01  1.130915E+05  1.000000E+00  9.881777E-01  9.874470E-01  9.878114E-01    2 
 4.500000E-02  2.500000E-03  5.000000E-01  1.130812E+05  1.000000E+00  9.848077E-01  9.838733E-01  9.843373E-01    2 
 5.500000E-02  2.500000E-03  5.000000E-01  1.130709E+05  1.000000E+00  9.814387E-01  9.803025E-01  9.808643E-01    2 
 6.500000E-02  2.500000E-03  5.000000E-01  1.130606E+05  1.000000E+00  9.780706E-01  9.767347E-01  9.773923E-01    2 
 7.500000E-02  2.500000E-03  5.000000E-01  1.130503E+05  1.000000E+00  9.747033E-01  9.731698E-01  9.739214E-01    2 
 8.500000E-02  2.500000E-03  5.000000E-01  1.130400E+05  1.000000E+00  9.713368E-01  9.696077E-01  9.704516E-01    2 
 9.500000E-02  2.500000E-03  5.000000E-01  1.130297E+05  1.000000E+00  9.679712E-01  9.660484E-01  9.669827E-01    2 
 1.100000E-01  2.500000E-03  5.000000E-01  1.130142E+05  1.000000E+00  9.629240E-01  9.607137E-01  9.617809E-01    2 
 1.300000E-01  2.500000E-03  5.000000E-01  1.129936E+05  1.000000E+00  9.562642E-01  9.536821E-01  9.549178E-01    2 
 1.500000E-01  2.500000E-03  5.000000E-01  1.129730E+05  1.000000E+00  9.496104E-01  9.466643E-01  9.480615E-01    2 
 1.700000E-01  2.500000E-03  5.000000E-01  1.129524E+05  1.000000E+00  9.429625E-01  9.396601E-01  9.412121E-01    2 
 1.900000E-01  2.500000E-03  5.000000E-01  1.129318E+05  1.000000E+00  9.363207E-01  9.326697E-01  9.343698E-01    2 
 2.100000E-01  2.500000E-03  5.000000E-01  1.129112E+05  1.000000E+00  9.296852E-01  9.256929E-01  9.275345E-01    2 
 2.300000E-01  2.500000E-03  5.000000E-01  1.128906E+05  1.000000E+00  9.230559E-01  9.187298E-01  9.207066E-01    2 
 2.500000E-01  2.500000E-03  5.000000E-01  1.128700E+05  1.000000E+00  9.164329E-01  9.117803E-01  9.138859E-01    2 
 2.700000E-01  2.500000E-03  5.000000E-01  1.128494E+05  1.000000E+00  9.098162E-01  9.048444E-01  9.070726E-01    2 
 2.900000E-01  2.500000E-03  5.000000E-01  1.128288E+05  1.000000E+00  9.032059E-01  8.979219E-01  9.002667E-01    2 
 3.250000E-01  2.500000E-03  5.000000E-01  1.127928E+05  1.000000E+00  8.916491E-01  8.858308E-01  8.883693E-01    2 
 3.750000E-01  2.500000E-03  5.000000E-01  1.127413E+05  1.000000E+00  8.756669E-01  8.691495E-01  8.719217E-01    2 
 4.250000E-01  2.500000E-03  5.000000E-01  1.126898E+05  1.000000E+00  8.597706E-01  8.525958E-01  8.555683E-01    2 
 4.750000E-01  2.500000E-03  5.000000E-01  1.126383E+05  1.000000E+00  8.439633E-01  8.361716E-01  8.393124E-01    2 
 5.250000E-01  2.500000E-03  5.000000E-01  1.125868E+05  1.000000E+00  8.282476E-01  8.198784E-01  8.231572E-01    2 
 5.750000E-01  2.500000E-03  5.000000E-01  1.125353E+05  1.000000E+00  8.126262E-01  8.037173E-01  8.071054E-01    2 
 6.250000E-01  2.500000E-03  5.000000E-01  1.124838E+05  1.000000E+00  7.971009E-01  7.876891E-01  7.911594E-01    2 
 6.750000E-01  2.500000E-03  5.000000E-01  1.124324E+05  1.000000E+00  7.816734E-01  7.717941E-01  7.753210E-01    2 
 7.250000E-01  2.500000E-03  5.000000E-01  1.123809E+05  1.000000E+00  7.663450E-01  7.560322E-01  7.595916E-01    2 
 7.750000E-01  2.500000E-03  5.000000E-01  1.123294E+05  1.000000E+00  7.511164E-01  7.404031E-01  7.439722E-01    2 
 8.250000E-01  2.500000E-03  5.000000E-01  1.122779E+05  1.000000E+00  7.359877E-01  7.249056E-01  7.284632E-01    2 
 8.750000E-01  2.500000E-03  5.000000E-01  1.122264E+05  1.000000E+00  7.209586E-01  7.095382E-01  7.130644E-01    2 
 9.250000E-01  2.500000E-03  5.000000E-01  1.121749E+05  1.000000E+00  7.060282E-01  6.942988E-01  6.977750E-01    2 
 9.750000E-01  2.500000E-03  5.000000E-01  1.121234E+05  1.000000E+00  6.911949E-01  6.791846E-01  6.825934E-01    2 
 1.050000E+00  2.500000E-03  5.000000E-01  1.120462E+05  1.000000E+00  6.690872E-01  6.566960E-01  6.599796E-01    2 
 1.150000E+00  2.500000E-03  5.000000E-01  1.119432E+05  1.000000E+00  6.414085E-01  6.286299E-01  6.317008E-01    2 
 1.250000E+00  2.500000E-03  5.000000E-01  1.118402E+05  1.000000E+00  6.143252E-01  6.012511E-01  6.040650E-01    2 
 1.350000E+00  2.500000E-03  5.000000E-01  1.117372E+05  1.000000E+00  5.878460E-01  5.745608E-01  5.770816E-01    2 
 1.450000E+00  2.500000E-03  5.000000E-01  1.116343E+05  1.000000E+00  5.619750E-01  5.485564E-01  5.507548E-01    2 
 1.550000E+00  2.500000E-03  5.000000E-01  1.115313E+05  1.000000E+00  5.367116E-01  5.232304E-01  5.250839E-01    2 
 1.650000E+00  2.500000E-03  5.000000E-01  1.114283E+05  1.000000E+00  5.120493E-01  4.985704E-01  5.000622E-01    2 
 1.750000E+00  2.500000E-03  5.000000E-01  1.113253E+05  1.000000E+00  4.879753E-01  4.745577E-01  4.756763E-01    2 
 1.850000E+00  2.500000E-03  5.000000E-01  1.112223E+05  1.000000E+00  4.644696E-01  4.511669E-01  4.519054E-01    2 
 1.950000E+00  2.500000E-03  5.000000E-01  1.111194E+05  1.000000E+00  4.415036E-01  4.283645E-01  4.287198E-01    2 
 2.100000E+00  2.500000E-03  5.000000E-01  1.109649E+05  1.000000E+00  4.078069E-01  3.949790E-01  3.947600E-01    2 
 2.300000E+00  2.500000E-03  5.000000E-01  1.107589E+05  1.000000E+00  3.688251E-01  3.565033E-01  3.556113E-01    2 
 2.500000E+00  2.500000E-03  5.000000E-01  1.105530E+05  1.000000E+00  3.325720E-01  3.208466E-01  3.193386E-01    2 
 2.700000E+00  2.500000E-03  5.000000E-01  1.103470E+05  1.000000E+00  2.989876E-01  2.879225E-01  2.858687E-01    2 
 2.900000E+00  2.500000E-03  5.000000E-01  1.101411E+05  1.000000E+00  2.679895E-01  2.576267E-01  2.551060E-01    2 
 3.100000E+00  2.500000E-03  5.000000E-01  1.099351E+05  1.000000E+00  2.394745E-01  2.298379E-01  2.269344E-01    2 
 3.300000E+00  2.500000E-03  5.000000E-01  1.097292E+05  1.000000E+00  2.133179E-01  2.044173E-01  2.012176E-01    2 
 3.500000E+00  2.500000E-03  5.000000E-01  1.095232E+05  1.000000E+00  1.893706E-01  1.812059E-01  1.777974E-01    2 
 3.700000E+00  2.500000E-03  5.000000E-01  1.093173E+05  1.000000E+00  1.674527E-01  1.600179E-01  1.564878E-01    2 
 3.900000E+00  2.500000E-03  5.000000E-01  1.091113E+05  1.000000E+00  1.473407E-01  1.406292E-01  1.370649E-01    2 
 4.500000E+00  2.500000E-03  5.000000E-01  1.084935E+05  1.000000E+00  9.155306E-02  8.700900E-02  8.360706E-02    2 
 5.500000E+00  2.500000E-03  5.000000E-01  1.074638E+05  1.000000E+00  5.053113E-02  4.782432E-02  4.513448E-02    2 
 6.500000E+00  2.500000E-03  5.000000E-01  1.064340E+05  1.000000E+00  2.713212E-02  2.558464E-02  2.367006E-02    2 
 7.500000E+00  2.500000E-03  5.000000E-01  1.054043E+05  1.000000E+00  1.530299E-02  1.438334E-02  1.303120E-02    2 
 5.000000E-03  7.500000E-03  5.000000E-01  1.131030E+05  1.000000E+00  9.570609E-01  9.539444E-01  9.556619E-01    1 
 1.500000E-02  7.500000E-03  5.000000E-01  1.130948E+05  1.000000E+00  9.543551E-01  9.510798E-01  9.528710E-01    1 
 2.500000E-02  7.500000E-03  5.000000E-01  1.130854E+05  1.000000E+00  9.512449E-01  9.477930E-01  9.496628E-01    1 
 3.500000E-02  7.500000E-03  5.000000E-01  1.130756E+05  1.000000E+00  9.480192E-01  9.443892E-01  9.463357E-01    1 
 4.500000E-02  7.500000E-03  5.000000E-01  1.130658E+05  1.000000E+00  9.447424E-01  9.409357E-01  9.429563E-01    1 
 5.500000E-02  7.500000E-03  5.000000E-01  1.130558E+05  1.000000E+00  9.414381E-01  9.374567E-01  9.395490E-01    1 
 6.500000E-02  7.500000E-03  5.000000E-01  1.130458E+05  1.000000E+00  9.381179E-01  9.339640E-01  9.361260E-01    1 
 7.500000E-02  7.500000E-03  5.000000E-01  1.130357E+05  1.000000E+00  9.347887E-01  9.304644E-01  9.326942E-01    1 
 8.500000E-02  7.500000E-03  5.000000E-01  1.130256E+05  1.000000E+00  9.314545E-01  9.269620E-01  9.292578E-01    1 
 9.500000E-02  7.500000E-03  5.000000E-01  1.130155E+05  1.000000E+00  9.281181E-01  9.234593E-01  9.258195E-01    1 
 1.100000E-01  7.500000E-03  5.000000E-01  1.130003E+05  1.000000E+00  9.231141E-01  9.182090E-01  9.206636E-01    1 
 1.300000E-01  7.500000E-03  5.000000E-01  1.129800E+05  1.000000E+00  9.164996E-01  9.112765E-01  9.138495E-01    1 
 1.500000E-01  7.500000E-03  5.000000E-01  1.129596E+05  1.000000E+00  9.098952E-01  9.043617E-01  9.070471E-01    1 
 1.700000E-01  7.500000E-03  5.000000E-01  1.129392E+05  1.000000E+00  9.032996E-01  8.974627E-01  9.002546E-01    1 
 1.900000E-01  7.500000E-03  5.000000E-01  1.129188E+05  1.000000E+00  8.967127E-01  8.905796E-01  8.934721E-01    1 
 2.100000E-01  7.500000E-03  5.000000E-01  1.128984E+05  1.000000E+00  8.901346E-01  8.837121E-01  8.866994E-01    1 
 2.300000E-01  7.500000E-03  5.000000E-01  1.128779E+05  1.000000E+00  8.835653E-01  8.768603E-01  8.799369E-01    1 
 2.500000E-01  7.500000E-03  5.000000E-01  1.128575E+05  1.000000E+00  8.770049E-01  8.700242E-01  8.731844E-01    1 
 2.700000E-01  7.500000E-03  5.000000E-01  1.128370E+05  1.000000E+00  8.704537E-01  8.632039E-01  8.664424E-01    1 
 2.900000E-01  7.500000E-03  5.000000E-01  1.128165E+05  1.000000E+00  8.639123E-01  8.563999E-01  8.597113E-01    1 
 3.250000E-01  7.500000E-03  5.000000E-01  1.127807E+05  1.000000E+00  8.524867E-01  8.445261E-01  8.479562E-01    1 
 3.750000E-01  7.500000E-03  5.000000E-01  1.127294E+05  1.000000E+00  8.366798E-01  8.281361E-01  8.317003E-01    1 
 4.250000E-01  7.500000E-03  5.000000E-01  1.126781E+05  1.000000E+00  8.209812E-01  8.118928E-01  8.155622E-01    1 
 4.750000E-01  7.500000E-03  5.000000E-01  1.126268E+05  1.000000E+00  8.053861E-01  7.957902E-01  7.995373E-01    1 
 5.250000E-01  7.500000E-03  5.000000E-01  1.125755E+05  1.000000E+00  7.898964E-01  7.798288E-01  7.836278E-01    1 
 5.750000E-01  7.500000E-03  5.000000E-01  1.125242E+05  1.000000E+00  7.745141E-01  7.640095E-01  7.678362E-01    1 
 6.250000E-01  7.500000E-03  5.000000E-01  1.124728E+05  1.000000E+00  7.592411E-01  7.483329E-01  7.521642E-01    1 
 6.750000E-01  7.500000E-03  5.000000E-01  1.124215E+05  1.000000E+00  7.440786E-01  7.327992E-01  7.366137E-01    1 
 7.250000E-01  7.500000E-03  5.000000E-01  1.123701E+05  1.000000E+00  7.290277E-01  7.174080E-01  7.211856E-01    1 
 7.750000E-01  7.500000E-03  5.000000E-01  1.123188E+05  1.000000E+00  7.140888E-01  7.021587E-01  7.058807E-01    1 
 8.250000E-01  7.500000E-03  5.000000E-01  1.122674E+05  1.000000E+00  6.992618E-01  6.870501E-01  6.906989E-01    1 
 8.750000E-01  7.500000E-03  5.000000E-01  1.122160E+05  1.000000E+00  6.845461E-01  6.720804E-01  6.756399E-01    1 
 9.250000E-01  7.500000E-03  5.000000E-01  1.121646E+05  1.000000E+00  6.699406E-01  6.572474E-01  6.607025E-01    1 
 9.750000E-01  7.500000E-03  5.000000E-01  1.121132E+05  1.000000E+00  6.554438E-01  6.425484E-01  6.458852E-01    1 
 1.050000E+00  7.500000E-03  5.000000E-01  1.120362E+05  1.000000E+00  6.338642E-01  6.207019E-01  6.238422E-01    1 
 1.150000E+00  7.500000E-03  5.000000E-01  1.119334E+05  1.000000E+00  6.068793E-01  5.934649E-01  5.963140E-01    1 
 1.250000E+00  7.500000E-03  5.000000E-01  1.118306E+05  1.000000E+00  5.805285E-01  5.669433E-01  5.694690E-01    1 
 1.350000E+00  7.500000E-03  5.000000E-01  1.117278E+05  1.000000E+00  5.548115E-01  5.411300E-01  5.433072E-01    1 
 1.450000E+00  7.500000E-03  5.000000E-01  1.116249E+05  1.000000E+00  5.297299E-01  5.160203E-01  5.178301E-01    1 
 1.550000E+00  7.500000E-03  5.000000E-01  1.115221E+05  1.000000E+00  5.052807E-01  4.916050E-01  4.930343E-01    1 
 1.650000E+00  7.500000E-03  5.000000E-01  1.114193E+05  1.000000E+00  4.814554E-01  4.678697E-01  4.689107E-01    1 
 1.750000E+00  7.500000E-03  5.000000E-01  1.113165E+05  1.000000E+00  4.582393E-01  4.447947E-01  4.454438E-01    1 
 1.850000E+00  7.500000E-03  5.000000E-01  1.112137E+05  1.000000E+00  4.356107E-01  4.223533E-01  4.226109E-01    1 
 1.950000E+00  7.500000E-03  5.000000E-01  1.111108E+05  1.000000E+00  4.135400E-01  4.005112E-01  4.003810E-01    1 
 2.100000E+00  7.500000E-03  5.000000E-01  1.109566E+05  1.000000E+00  3.812163E-01  3.685864E-01  3.678838E-01    1 
 2.300000E+00  7.500000E-03  5.000000E-01  1.107509E+05  1.000000E+00  3.439338E-01  3.318955E-01  3.305397E-01    1 
 2.500000E+00  7.500000E-03  5.000000E-01  1.105453E+05  1.000000E+00  3.093748E-01  2.979974E-01  2.960586E-01    1 
 2.700000E+00  7.500000E-03  5.000000E-01  1.103396E+05  1.000000E+00  2.774608E-01  2.667902E-01  2.643479E-01    1 
 2.900000E+00  7.500000E-03  5.000000E-01  1.101339E+05  1.000000E+00  2.480973E-01  2.381600E-01  2.352989E-01    1 
 3.100000E+00  7.500000E-03  5.000000E-01  1.099283E+05  1.000000E+00  2.211715E-01  2.119780E-01  2.087855E-01    1 
 3.300000E+00  7.500000E-03  5.000000E-01  1.097226E+05  1.000000E+00  1.965521E-01  1.881010E-01  1.846642E-01    1 
 3.500000E+00  7.500000E-03  5.000000E-01  1.095169E+05  1.000000E+00  1.740870E-01  1.663684E-01  1.627736E-01    1 
 3.700000E+00  7.500000E-03  5.000000E-01  1.093112E+05  1.000000E+00  1.535980E-01  1.465975E-01  1.429295E-01    1 
 3.900000E+00  7.500000E-03  5.000000E-01  1.091056E+05  1.000000E+00  1.348690E-01  1.285724E-01  1.249152E-01    1 
 4.500000E+00  7.500000E-03  5.000000E-01  1.084886E+05  1.000000E+00  8.314279E-02  7.893299E-02  7.556201E-02    1 
 5.500000E+00  7.500000E-03  5.000000E-01  1.074603E+05  1.000000E+00  4.549894E-02  4.302157E-02  4.042701E-02    1 
 6.500000E+00  7.500000E-03  5.000000E-01  1.064321E+05  1.000000E+00  2.422992E-02  2.282881E-02  2.101912E-02    1 
 7.500000E+00  7.500000E-03  5.000000E-01  1.054050E+05  1.000000E+00  1.356041E-02  1.273566E-02  1.147767E-02    1 
 5.000000E-03  1.250000E-02  5.000000E-01  1.130663E+05  1.000000E+00  8.772398E-01  8.696306E-01  8.732631E-01    1 
 1.500000E-02  1.250000E-02  5.000000E-01  1.130605E+05  1.000000E+00  8.752958E-01  8.675871E-01  8.712567E-01    1 
 2.500000E-02  1.250000E-02  5.000000E-01  1.130527E+05  1.000000E+00  8.726575E-01  8.648226E-01  8.685337E-01    1 
 3.500000E-02  1.250000E-02  5.000000E-01  1.130440E+05  1.000000E+00  8.697321E-01  8.617656E-01  8.655150E-01    1 
 4.500000E-02  1.250000E-02  5.000000E-01  1.130350E+05  1.000000E+00  8.666634E-01  8.585656E-01  8.623495E-01    1 
 5.500000E-02  1.250000E-02  5.000000E-01  1.130257E+05  1.000000E+00  8.635144E-01  8.552876E-01  8.591025E-01    1 
 6.500000E-02  1.250000E-02  5.000000E-01  1.130162E+05  1.000000E+00  8.603182E-01  8.519648E-01  8.558081E-01    1 
 7.500000E-02  1.250000E-02  5.000000E-01  1.130066E+05  1.000000E+00  8.570937E-01  8.486162E-01  8.524861E-01    1 
 8.500000E-02  1.250000E-02  5.000000E-01  1.129969E+05  1.000000E+00  8.538531E-01  8.452538E-01  8.491486E-01    1 
 9.500000E-02  1.250000E-02  5.000000E-01  1.129872E+05  1.000000E+00  8.506042E-01  8.418851E-01  8.458038E-01    1 
 1.100000E-01  1.250000E-02  5.000000E-01  1.129724E+05  1.000000E+00  8.457278E-01  8.368321E-01  8.407847E-01    1 
 1.300000E-01  1.250000E-02  5.000000E-01  1.129527E+05  1.000000E+00  8.392657E-01  8.301433E-01  8.341364E-01    1 
 1.500000E-01  1.250000E-02  5.000000E-01  1.129328E+05  1.000000E+00  8.328188E-01  8.234765E-01  8.275056E-01    1 
 1.700000E-01  1.250000E-02  5.000000E-01  1.129128E+05  1.000000E+00  8.263855E-01  8.168294E-01  8.208903E-01    1 
 1.900000E-01  1.250000E-02  5.000000E-01  1.128927E+05  1.000000E+00  8.199657E-01  8.102018E-01  8.142901E-01    1 
 2.100000E-01  1.250000E-02  5.000000E-01  1.128726E+05  1.000000E+00  8.135593E-01  8.035935E-01  8.077049E-01    1 
 2.300000E-01  1.250000E-02  5.000000E-01  1.128525E+05  1.000000E+00  8.071665E-01  7.970046E-01  8.011348E-01    1 
 2.500000E-01  1.250000E-02  5.000000E-01  1.128323E+05  1.000000E+00  8.007874E-01  7.904352E-01  7.945800E-01    1 
 2.700000E-01  1.250000E-02  5.000000E-01  1.128121E+05  1.000000E+00  7.944226E-01  7.838856E-01  7.880411E-01    1 
 2.900000E-01  1.250000E-02  5.000000E-01  1.127918E+05  1.000000E+00  7.880737E-01  7.773575E-01  7.815197E-01    1 
 3.250000E-01  1.250000E-02  5.000000E-01  1.127564E+05  1.000000E+00  7.770013E-01  7.659810E-01  7.701485E-01    1 
 3.750000E-01  1.250000E-02  5.000000E-01  1.127056E+05  1.000000E+00  7.616789E-01  7.502695E-01  7.544215E-01    1 
 4.250000E-01  1.250000E-02  5.000000E-01  1.126548E+05  1.000000E+00  7.465018E-01  7.347354E-01  7.388514E-01    1 
 4.750000E-01  1.250000E-02  5.000000E-01  1.126038E+05  1.000000E+00  7.314538E-01  7.193612E-01  7.234218E-01    1 
 5.250000E-01  1.250000E-02  5.000000E-01  1.125529E+05  1.000000E+00  7.165348E-01  7.041459E-01  7.081330E-01    1 
 5.750000E-01  1.250000E-02  5.000000E-01  1.125019E+05  1.000000E+00  7.017463E-01  6.890896E-01  6.929865E-01    1 
 6.250000E-01  1.250000E-02  5.000000E-01  1.124508E+05  1.000000E+00  6.870893E-01  6.741925E-01  6.779838E-01    1 
 6.750000E-01  1.250000E-02  5.000000E-01  1.123997E+05  1.000000E+00  6.725647E-01  6.594542E-01  6.631255E-01    1 
 7.250000E-01  1.250000E-02  5.000000E-01  1.123486E+05  1.000000E+00  6.581728E-01  6.448741E-01  6.484123E-01    1 
 7.750000E-01  1.250000E-02  5.000000E-01  1.122975E+05  1.000000E+00  6.439135E-01  6.304510E-01  6.338441E-01    1 
 8.250000E-01  1.250000E-02  5.000000E-01  1.122464E+05  1.000000E+00  6.297862E-01  6.161832E-01  6.194203E-01    1 
 8.750000E-01  1.250000E-02  5.000000E-01  1.121952E+05  1.000000E+00  6.157897E-01  6.020687E-01  6.051398E-01    1 
 9.250000E-01  1.250000E-02  5.000000E-01  1.121441E+05  1.000000E+00  6.019226E-01  5.881048E-01  5.910011E-01    1 
 9.750000E-01  1.250000E-02  5.000000E-01  1.120929E+05  1.000000E+00  5.881832E-01  5.742892E-01  5.770025E-01    1 
 1.050000E+00  1.250000E-02  5.000000E-01  1.120161E+05  1.000000E+00  5.677771E-01  5.537976E-01  5.562259E-01    1 
 1.150000E+00  1.250000E-02  5.000000E-01  1.119137E+05  1.000000E+00  5.423215E-01  5.283033E-01  5.303481E-01    1 
 1.250000E+00  1.250000E-02  5.000000E-01  1.118113E+05  1.000000E+00  5.175579E-01  5.035638E-01  5.052122E-01    1 
 1.350000E+00  1.250000E-02  5.000000E-01  1.117088E+05  1.000000E+00  4.934714E-01  4.795586E-01  4.808033E-01    1 
 1.450000E+00  1.250000E-02  5.000000E-01  1.116063E+05  1.000000E+00  4.700587E-01  4.562788E-01  4.571172E-01    1 
 1.550000E+00  1.250000E-02  5.000000E-01  1.115038E+05  1.000000E+00  4.473123E-01  4.337116E-01  4.341456E-01    1 
 1.650000E+00  1.250000E-02  5.000000E-01  1.114013E+05  1.000000E+00  4.252197E-01  4.118399E-01  4.118750E-01    1 
 1.750000E+00  1.250000E-02  5.000000E-01  1.112988E+05  1.000000E+00  4.037628E-01  3.906411E-01  3.902859E-01    1 
 1.850000E+00  1.250000E-02  5.000000E-01  1.111963E+05  1.000000E+00  3.829173E-01  3.700866E-01  3.693524E-01    1 
 1.950000E+00  1.250000E-02  5.000000E-01  1.110938E+05  1.000000E+00  3.626512E-01  3.501412E-01  3.490412E-01    1 
 2.100000E+00  1.250000E-02  5.000000E-01  1.109400E+05  1.000000E+00  3.330716E-01  3.210816E-01  3.194550E-01    1 
 2.300000E+00  1.250000E-02  5.000000E-01  1.107349E+05  1.000000E+00  2.991436E-01  2.878569E-01  2.856565E-01    1 
 2.500000E+00  1.250000E-02  5.000000E-01  1.105298E+05  1.000000E+00  2.678846E-01  2.573367E-01  2.546478E-01    1 
 2.700000E+00  1.250000E-02  5.000000E-01  1.103247E+05  1.000000E+00  2.391863E-01  2.293944E-01  2.263054E-01    1 
 2.900000E+00  1.250000E-02  5.000000E-01  1.101196E+05  1.000000E+00  2.129344E-01  2.039007E-01  2.005003E-01    1 
 3.100000E+00  1.250000E-02  5.000000E-01  1.099145E+05  1.000000E+00  1.890014E-01  1.807163E-01  1.770909E-01    1 
 3.300000E+00  1.250000E-02  5.000000E-01  1.097094E+05  1.000000E+00  1.672469E-01  1.596919E-01  1.559246E-01    1 
 3.500000E+00  1.250000E-02  5.000000E-01  1.095043E+05  1.000000E+00  1.475158E-01  1.406669E-01  1.368370E-01    1 
 3.700000E+00  1.250000E-02  5.000000E-01  1.092992E+05  1.000000E+00  1.296347E-01  1.234654E-01  1.196491E-01    1 
 3.900000E+00  1.250000E-02  5.000000E-01  1.090941E+05  1.000000E+00  1.134031E-01  1.078883E-01  1.041596E-01    1 
 4.500000E+00  1.250000E-02  5.000000E-01  1.084788E+05  1.000000E+00  6.892652E-02  6.531856E-02  6.207622E-02    1 
 5.500000E+00  1.250000E-02  5.000000E-01  1.074534E+05  1.000000E+00  3.715283E-02  3.507381E-02  3.269062E-02    1 
 6.500000E+00  1.250000E-02  5.000000E-01  1.064283E+05  1.000000E+00  1.950120E-02  1.834712E-02  1.674224E-02    1 
 7.500000E+00  1.250000E-02  5.000000E-01  1.054062E+05  1.000000E+00  1.076677E-02  1.009858E-02  9.013330E-03    1 
 5.000000E-03  1.750000E-02  5.000000E-01  1.130311E+05  1.000000E+00  7.991121E-01  7.882292E-01  7.926935E-01    1 
 1.500000E-02  1.750000E-02  5.000000E-01  1.130268E+05  1.000000E+00  7.976366E-01  7.866908E-01  7.911702E-01    1 
 2.500000E-02  1.750000E-02  5.000000E-01  1.130202E+05  1.000000E+00  7.953942E-01  7.843614E-01  7.888555E-01    1 
 3.500000E-02  1.750000E-02  5.000000E-01  1.130126E+05  1.000000E+00  7.927614E-01  7.816354E-01  7.861391E-01    1 
 4.500000E-02  1.750000E-02  5.000000E-01  1.130043E+05  1.000000E+00  7.899145E-01  7.786956E-01  7.832033E-01    1 
 5.500000E-02  1.750000E-02  5.000000E-01  1.129956E+05  1.000000E+00  7.869424E-01  7.756332E-01  7.801407E-01    1 
 6.500000E-02  1.750000E-02  5.000000E-01  1.129866E+05  1.000000E+00  7.838950E-01  7.724981E-01  7.770026E-01    1 
 7.500000E-02  1.750000E-02  5.000000E-01  1.129775E+05  1.000000E+00  7.808021E-01  7.693203E-01  7.738197E-01    1 
 8.500000E-02  1.750000E-02  5.000000E-01  1.129682E+05  1.000000E+00  7.776825E-01  7.661182E-01  7.706113E-01    1 
 9.500000E-02  1.750000E-02  5.000000E-01  1.129588E+05  1.000000E+00  7.745487E-01  7.629041E-01  7.673900E-01    1 
 1.100000E-01  1.750000E-02  5.000000E-01  1.129446E+05  1.000000E+00  7.698402E-01  7.580781E-01  7.625521E-01    1 
 1.300000E-01  1.750000E-02  5.000000E-01  1.129254E+05  1.000000E+00  7.635885E-01  7.516774E-01  7.561327E-01    1 
 1.500000E-01  1.750000E-02  5.000000E-01  1.129059E+05  1.000000E+00  7.573551E-01  7.453008E-01  7.497347E-01    1 
 1.700000E-01  1.750000E-02  5.000000E-01  1.128864E+05  1.000000E+00  7.511394E-01  7.389471E-01  7.433567E-01    1 
 1.900000E-01  1.750000E-02  5.000000E-01  1.128667E+05  1.000000E+00  7.449414E-01  7.326162E-01  7.369985E-01    1 
 2.100000E-01  1.750000E-02  5.000000E-01  1.128469E+05  1.000000E+00  7.387611E-01  7.263079E-01  7.306598E-01    1 
 2.300000E-01  1.750000E-02  5.000000E-01  1.128271E+05  1.000000E+00  7.325986E-01  7.200222E-01  7.243408E-01    1 
 2.500000E-01  1.750000E-02  5.000000E-01  1.128072E+05  1.000000E+00  7.264541E-01  7.137593E-01  7.180417E-01    1 
 2.700000E-01  1.750000E-02  5.000000E-01  1.127872E+05  1.000000E+00  7.203285E-01  7.075199E-01  7.117632E-01    1 
 2.900000E-01  1.750000E-02  5.000000E-01  1.127672E+05  1.000000E+00  7.142242E-01  7.013063E-01  7.055080E-01    1 
 3.250000E-01  1.750000E-02  5.000000E-01  1.127321E+05  1.000000E+00  7.035922E-01  6.904909E-01  6.946155E-01    1 
 3.750000E-01  1.750000E-02  5.000000E-01  1.126818E+05  1.000000E+00  6.888804E-01  6.755525E-01  6.795540E-01    1 
 4.250000E-01  1.750000E-02  5.000000E-01  1.126314E+05  1.000000E+00  6.743444E-01  6.608156E-01  6.646811E-01    1 
 4.750000E-01  1.750000E-02  5.000000E-01  1.125809E+05  1.000000E+00  6.599592E-01  6.462548E-01  6.499718E-01    1 
 5.250000E-01  1.750000E-02  5.000000E-01  1.125302E+05  1.000000E+00  6.457232E-01  6.318673E-01  6.354246E-01    1 
 5.750000E-01  1.750000E-02  5.000000E-01  1.124796E+05  1.000000E+00  6.316369E-01  6.176526E-01  6.210402E-01    1 
 6.250000E-01  1.750000E-02  5.000000E-01  1.124288E+05  1.000000E+00  6.177009E-01  6.036104E-01  6.068190E-01    1 
 6.750000E-01  1.750000E-02  5.000000E-01  1.123780E+05  1.000000E+00  6.039153E-01  5.897398E-01  5.927614E-01    1 
 7.250000E-01  1.750000E-02  5.000000E-01  1.123272E+05  1.000000E+00  5.902799E-01  5.760397E-01  5.788671E-01    1 
 7.750000E-01  1.750000E-02  5.000000E-01  1.122763E+05  1.000000E+00  5.767939E-01  5.625084E-01  5.651353E-01    1 
 8.250000E-01  1.750000E-02  5.000000E-01  1.122254E+05  1.000000E+00  5.634562E-01  5.491439E-01  5.515649E-01    1 
 8.750000E-01  1.750000E-02  5.000000E-01  1.121745E+05  1.000000E+00  5.502651E-01  5.359437E-01  5.381541E-01    1 
 9.250000E-01  1.750000E-02  5.000000E-01  1.121235E+05  1.000000E+00  5.372186E-01  5.229048E-01  5.249008E-01    1 
 9.750000E-01  1.750000E-02  5.000000E-01  1.120725E+05  1.000000E+00  5.243152E-01  5.100250E-01  5.118033E-01    1 
 1.050000E+00  1.750000E-02  5.000000E-01  1.119961E+05  1.000000E+00  5.051918E-01  4.909592E-01  4.924075E-01    1 
 1.150000E+00  1.750000E-02  5.000000E-01  1.118940E+05  1.000000E+00  4.813959E-01  4.672912E-01  4.683150E-01    1 
 1.250000E+00  1.750000E-02  5.000000E-01  1.117920E+05  1.000000E+00  4.583321E-01  4.444017E-01  4.450037E-01    1 
 1.350000E+00  1.750000E-02  5.000000E-01  1.116899E+05  1.000000E+00  4.359736E-01  4.222595E-01  4.224459E-01    1 
 1.450000E+00  1.750000E-02  5.000000E-01  1.115877E+05  1.000000E+00  4.143122E-01  4.008516E-01  4.006325E-01    1 
 1.550000E+00  1.750000E-02  5.000000E-01  1.114855E+05  1.000000E+00  3.933364E-01  3.801622E-01  3.795504E-01    1 
 1.650000E+00  1.750000E-02  5.000000E-01  1.113834E+05  1.000000E+00  3.730302E-01  3.601712E-01  3.591821E-01    1 
 1.750000E+00  1.750000E-02  5.000000E-01  1.112812E+05  1.000000E+00  3.533723E-01  3.408539E-01  3.395048E-01    1 
 1.850000E+00  1.750000E-02  5.000000E-01  1.111790E+05  1.000000E+00  3.343359E-01  3.221803E-01  3.204899E-01    1 
 1.950000E+00  1.750000E-02  5.000000E-01  1.110767E+05  1.000000E+00  3.158876E-01  3.041140E-01  3.021022E-01    1 
 2.100000E+00  1.750000E-02  5.000000E-01  1.109234E+05  1.000000E+00  2.890513E-01  2.778754E-01  2.754118E-01    1 
 2.300000E+00  1.750000E-02  5.000000E-01  1.107189E+05  1.000000E+00  2.584393E-01  2.480317E-01  2.450994E-01    1 
 2.500000E+00  1.750000E-02  5.000000E-01  1.105144E+05  1.000000E+00  2.304033E-01  2.207724E-01  2.174631E-01    1 
 2.700000E+00  1.750000E-02  5.000000E-01  1.103099E+05  1.000000E+00  2.048116E-01  1.959521E-01  1.923556E-01    1 
 2.900000E+00  1.750000E-02  5.000000E-01  1.101053E+05  1.000000E+00  1.815350E-01  1.734304E-01  1.696326E-01    1 
 3.100000E+00  1.750000E-02  5.000000E-01  1.099008E+05  1.000000E+00  1.604353E-01  1.530609E-01  1.491424E-01    1 
 3.300000E+00  1.750000E-02  5.000000E-01  1.096963E+05  1.000000E+00  1.413666E-01  1.346915E-01  1.307274E-01    1 
 3.500000E+00  1.750000E-02  5.000000E-01  1.094917E+05  1.000000E+00  1.241738E-01  1.181641E-01  1.142236E-01    1 
 3.700000E+00  1.750000E-02  5.000000E-01  1.092872E+05  1.000000E+00  1.086903E-01  1.033112E-01  9.945931E-02    1 
 3.900000E+00  1.750000E-02  5.000000E-01  1.090826E+05  1.000000E+00  9.473078E-02  8.995003E-02  8.624900E-02    1 
 4.500000E+00  1.750000E-02  5.000000E-01  1.084690E+05  1.000000E+00  5.677750E-02  5.371300E-02  5.065262E-02    1 
 5.500000E+00  1.750000E-02  5.000000E-01  1.074464E+05  1.000000E+00  3.015164E-02  2.842077E-02  2.626280E-02    1 
 6.500000E+00  1.750000E-02  5.000000E-01  1.064244E+05  1.000000E+00  1.560279E-02  1.465903E-02  1.325234E-02    1 
 7.500000E+00  1.750000E-02  5.000000E-01  1.054075E+05  1.000000E+00  8.499997E-03  7.962258E-03  7.035517E-03    1 
 5.000000E-03  2.250000E-02  5.000000E-01  1.129969E+05  1.000000E+00  7.233026E-01  7.101832E-01  7.146450E-01    1 
 1.500000E-02  2.250000E-02  5.000000E-01  1.129935E+05  1.000000E+00  7.221328E-01  7.089742E-01  7.134376E-01    1 
 2.500000E-02  2.250000E-02  5.000000E-01  1.129880E+05  1.000000E+00  7.202142E-01  7.069983E-01  7.114581E-01    1 
 3.500000E-02  2.250000E-02  5.000000E-01  1.129812E+05  1.000000E+00  7.178555E-01  7.045775E-01  7.090261E-01    1 
 4.500000E-02  2.250000E-02  5.000000E-01  1.129737E+05  1.000000E+00  7.152350E-01  7.018957E-01  7.063266E-01    1 
 5.500000E-02  2.250000E-02  5.000000E-01  1.129656E+05  1.000000E+00  7.124551E-01  6.990573E-01  7.034655E-01    1 
 6.500000E-02  2.250000E-02  5.000000E-01  1.129572E+05  1.000000E+00  7.095766E-01  6.961236E-01  7.005060E-01    1 
 7.500000E-02  2.250000E-02  5.000000E-01  1.129485E+05  1.000000E+00  7.066378E-01  6.931326E-01  6.974871E-01    1 
 8.500000E-02  2.250000E-02  5.000000E-01  1.129396E+05  1.000000E+00  7.036630E-01  6.901082E-01  6.944338E-01    1 
 9.500000E-02  2.250000E-02  5.000000E-01  1.129305E+05  1.000000E+00  7.006686E-01  6.870664E-01  6.913626E-01    1 
 1.100000E-01  2.250000E-02  5.000000E-01  1.129168E+05  1.000000E+00  6.961644E-01  6.824939E-01  6.867454E-01    1 
 1.300000E-01  2.250000E-02  5.000000E-01  1.128981E+05  1.000000E+00  6.901746E-01  6.764197E-01  6.806106E-01    1 
 1.500000E-01  2.250000E-02  5.000000E-01  1.128791E+05  1.000000E+00  6.842046E-01  6.703704E-01  6.744995E-01    1 
 1.700000E-01  2.250000E-02  5.000000E-01  1.128599E+05  1.000000E+00  6.782558E-01  6.643465E-01  6.684122E-01    1 
 1.900000E-01  2.250000E-02  5.000000E-01  1.128406E+05  1.000000E+00  6.723283E-01  6.583482E-01  6.623485E-01    1 
 2.100000E-01  2.250000E-02  5.000000E-01  1.128212E+05  1.000000E+00  6.664222E-01  6.523752E-01  6.563083E-01    1 
 2.300000E-01  2.250000E-02  5.000000E-01  1.128016E+05  1.000000E+00  6.605375E-01  6.464275E-01  6.502916E-01    1 
 2.500000E-01  2.250000E-02  5.000000E-01  1.127820E+05  1.000000E+00  6.546744E-01  6.405054E-01  6.442986E-01    1 
 2.700000E-01  2.250000E-02  5.000000E-01  1.127623E+05  1.000000E+00  6.488342E-01  6.346098E-01  6.383305E-01    1 