TITLE = "   0.0000E+00 [d]"
VARIABLES="X [m]","Y [m]","Z [m]","qlx [m/d]","qly [m/d]","qlz [m/d]","Material_ID"
ZONE T= "  0.00000E+00", I=   58, J=   38, K=    1, DATAPACKING=POINT
 5.000000E-03  2.500000E-03  5.000000E-01  0.000000E+00  0.000000E+00  0.000000E+00    2 
 1.500000E-02  2.500000E-03  5.000000E-01  0.000000E+00  0.000000E+00  0.000000E+00    2 
 2.500000E-02  2.500000E-03  5.000000E-01  0.000000E+00  0.000000E+00  0.000000E+00    2 
 3.500000E-02  2.500000E-03  5.000000E-01  0.000000E+00  0.000000E+00  0.000000E+00    2 
 4.500000E-02  2.500000E-03  5.000000E-01  0.000000E+00  0.000000E+00  0.000000E+00    2 
 5.500000E-02  2.500000E-03  5.000000E-01  0.000000E+00  0.000000E+00  0.000000E+00    2 
 6.500000E-02  2.500000E-03  5.000000E-01  0.000000E+00  0.000000E+00  0.000000E+00    2 
 7.500000E-02  2.500000E-03  5.000000E-01  0.000000E+00  0.000000E+00  0.000000E+00    2 
 8.500000E-02  2.500000E-03  5.000000E-01  0.000000E+00  0.000000E+00  0.000000E+00    2 
 9.500000E-02  2.500000E-03  5.000000E-01  0.000000E+00  0.000000E+00  0.000000E+00    2 
 1.100000E-01  2.500000E-03  5.000000E-01  0.000000E+00  0.000000E+00  0.000000E+00    2 
 1.300000E-01  2.500000E-03  5.000000E-01  0.000000E+00  0.000000E+00  0.000000E+00    2 
 1.500000E-01  2.500000E-03  5.000000E-01  0.000000E+00  0.000000E+00  0.000000E+00    2 
 1.700000E-01  2.500000E-03  5.000000E-01  0.000000E+00  0.000000E+00  0.000000E+00    2 
 1.900000E-01  2.500000E-03  5.000000E-01  0.000000E+00  0.000000E+00  0.000000E+00    2 
 2.100000E-01  2.500000E-03  5.000000E-01  0.000000E+00  0.000000E+00  0.000000E+00    2 
 2.300000E-01  2.500000E-03  5.000000E-01  0.000000E+00  0.000000E+00  0.000000E+00    2 
 2.500000E-01  2.500000E-03  5.000000E-01  0.000000E+00  0.000000E+00  0.000000E+00    2 
 2.700000E-01  2.500000E-03  5.000000E-01  0.000000E+00  0.000000E+00  0.000000E+00    2 
 2.900000E-01  2.500000E-03  5.000000E-01  0.000000E+00  0.000000E+00  0.000000E+00    2 
 3.250000E-01  2.500000E-03  5.000000E-01  0.000000E+00  0.000000E+00  0.000000E+00    2 
 3.750000E-01  2.500000E-03  5.000000E-01  0.000000E+00  0.000000E+00  0.000000E+00    2 
 4.250000E-01  2.500000E-03  5.000000E-01  0.000000E+00  0.000000E+00  0.000000E+00    2 
 4.750000E-01  2.500000E-03  5.000000E-01  0.000000E+00  0.000000E+00  0.000000E+00    2 
 5.250000E-01  2.500000E-03  5.000000E-01  0.000000E+00  0.000000E+00  0.000000E+00    2 
 5.750000E-01  2.500000E-03  5.000000E-01  0.000000E+00  0.000000E+00  0.000000E+00    2 
 6.250000E-01  2.500000E-03  5.000000E-01  0.000000E+00  0.000000E+00  0.000000E+00    2 
 6.750000E-01  2.500000E-03  5.000000E-01  0.000000E+00  0.000000E+00  0.000000E+00    2 
 7.250000E-01  2.500000E-03  5.000000E-01  0.000000E+00  0.000000E+00  0.000000E+00    2 
 7.750000E-01  2.500000E-03  5.000000E-01  0.000000E+00  0.000000E+00  0.000000E+00    2 
 8.250000E-01  2.500000E-03  5.000000E-01  0.000000E+00  0.000000E+00  0.000000E+00    2 
 8.750000E-01  2.500000E-03  5.000000E-01  0.000000E+00  0.000000E+00  0.000000E+00    2 
 9.250000E-01  2.500000E-03  5.000000E-01  0.000000E+00  0.000000E+00  0.000000E+00    2 
 9.750000E-01  2.500000E-03  5.000000E-01  0.000000E+00  0.000000E+00  0.000000E+00    2 
 1.050000E+00  2.500000E-03  5.000000E-01  0.000000E+00  0.000000E+00  0.000000E+00    2 
 1.150000E+00  2.500000E-03  5.000000E-01  0.000000E+00  0.000000E+00  0.000000E+00    2 
 1.250000E+00  2.500000E-03  5.000000E-01  0.000000E+00  0.000000E+00  0.000000E+00    2 
 1.350000E+00  2.500000E-03  5.000000E-01  0.000000E+00  0.000000E+00  0.000000E+00    2 
 1.450000E+00  2.500000E-03  5.000000E-01  0.000000E+00  0.000000E+00  0.000000E+00    2 
 1.550000E+00  2.500000E-03  5.000000E-01  0.000000E+00  0.000000E+00  0.000000E+00    2 
 1.650000E+00  2.500000E-03  5.000000E-01  0.000000E+00  0.000000E+00  0.000000E+00    2 
 1.750000E+00  2.500000E-03  5.000000E-01  0.000000E+00  0.000000E+00  0.000000E+00    2 
 1.850000E+00  2.500000E-03  5.000000E-01  0.000000E+00  0.000000E+00  0.000000E+00    2 
 1.950000E+00  2.500000E-03  5.000000E-01  0.000000E+00  0.000000E+00  0.000000E+00    2 
 2.100000E+00  2.500000E-03  5.000000E-01  0.000000E+00  0.000000E+00  0.000000E+00    2 
 2.300000E+00  2.500000E-03  5.000000E-01  0.000000E+00  0.000000E+00  0.000000E+00    2 
 2.500000E+00  2.500000E-03  5.000000E-01  0.000000E+00  0.000000E+00  0.000000E+00    2 
 2.700000E+00  2.500000E-03  5.000000E-01  0.000000E+00  0.000000E+00  0.000000E+00    2 
 2.900000E+00  2.500000E-03  5.000000E-01  0.000000E+00  0.000000E+00  0.000000E+00    2 
 3.100000E+00  2.500000E-03  5.000000E-01  0.000000E+00  0.000000E+00  0.000000E+00    2 
 3.300000E+00  2.500000E-03  5.000000E-01  0.000000E+00  0.000000E+00  0.000000E+00    2 
 3.500000E+00  2.500000E-03  5.000000E-01  0.000000E+00  0.000000E+00  0.000000E+00    2 
 3.700000E+00  2.500000E-03  5.000000E-01  0.000000E+00  0.000000E+00  0.000000E+00    2 
 3.900000E+00  2.500000E-03  5.000000E-01  0.000000E+00  0.000000E+00  0.000000E+00    2 
 4.500000E+00  2.500000E-03  5.000000E-01  0.000000E+00  0.000000E+00  0.000000E+00    2 
 5.500000E+00  2.500000E-03  5.000000E-01  0.000000E+00  0.000000E+00  0.000000E+00    2 
 6.500000E+00  2.500000E-03  5.000000E-01  0.000000E+00  0.000000E+00  0.000000E+00    2 
 7.500000E+00  2.500000E-03  5.000000E-01  0.000000E+00  0.000000E+00  0.000000E+00    2 
 5.000000E-03  7.500000E-03  5.000000E-01  0.000000E+00  0.000000E+00  0.000000E+00    1 
 1.500000E-02  7.500000E-03  5.000000E-01  0.000000E+00  0.000000E+00  0.000000E+00    1 
 2.500000E-02  7.500000E-03  5.000000E-01  0.000000E+00  0.000000E+00  0.000000E+00    1 
 3.500000E-02  7.500000E-03  5.000000E-01  0.000000E+00  0.000000E+00  0.000000E+00    1 
 4.500000E-02  7.500000E-03  5.000000E-01  0.000000E+00  0.000000E+00  0.000000E+00    1 
 5.500000E-02  7.500000E-03  5.000000E-01  0.000000E+00  0.000000E+00  0.000000E+00    1 
 6.500000E-02  7.500000E-03  5.000000E-01  0.000000E+00  0.000000E+00  0.000000E+00    1 
 7.500000E-02  7.500000E-03  5.000000E-01  0.000000E+00  0.000000E+00  0.000000E+00    1 
 8.500000E-02  7.500000E-03  5.000000E-01  0.000000E+00  0.000000E+00  0.000000E+00    1 
 9.500000E-02  7.500000E-03  5.000000E-01  0.000000E+00  0.000000E+00  0.000000E+00    1 
 1.100000E-01  7.500000E-03  5.000000E-01  0.000000E+00  0.000000E+00  0.000000E+00    1 
 1.300000E-01  7.500000E-03  5.000000E-01  0.000000E+00  0.000000E+00  0.000000E+00    1 
 1.500000E-01  7.500000E-03  5.000000E-01  0.000000E+00  0.000000E+00  0.000000E+00    1 
 1.700000E-01  7.500000E-03  5.000000E-01  0.000000E+00  0.000000E+00  0.000000E+00    1 
 1.900000E-01  7.500000E-03  5.000000E-01  0.000000E+00  0.000000E+00  0.000000E+00    1 
 2.100000E-01  7.500000E-03  5.000000E-01  0.000000E+00  0.000000E+00  0.000000E+00    1 
 2.300000E-01  7.500000E-03  5.000000E-01  0.000000E+00  0.000000E+00  0.000000E+00    1 
 2.500000E-01  7.500000E-03  5.000000E-01  0.000000E+00  0.000000E+00  0.000000E+00    1 
 2.700000E-01  7.500000E-03  5.000000E-01  0.000000E+00  0.000000E+00  0.000000E+00    1 
 2.900000E-01  7.500000E-03  5.000000E-01  0.000000E+00  0.000000E+00  0.000000E+00    1 
 3.250000E-01  7.500000E-03  5.000000E-01  0.000000E+00  0.000000E+00  0.000000E+00    1 
 3.750000E-01  7.500000E-03  5.000000E-01  0.000000E+00  0.000000E+00  0.000000E+00    1 
 4.250000E-01  7.500000E-03  5.000000E-01  0.000000E+00  0.000000E+00  0.000000E+00    1 
 4.750000E-01  7.500000E-03  5.000000E-01  0.000000E+00  0.000000E+00  0.000000E+00    1 
 5.250000E-01  7.500000E-03  5.000000E-01  0.000000E+00  0.000000E+00  0.000000E+00    1 
 5.750000E-01  7.500000E-03  5.000000E-01  0.000000E+00  0.000000E+00  0.000000E+00    1 
 6.250000E-01  7.500000E-03  5.000000E-01  0.000000E+00  0.000000E+00  0.000000E+00    1 
 6.750000E-01  7.500000E-03  5.000000E-01  0.000000E+00  0.000000E+00  0.000000E+00    1 
 7.250000E-01  7.500000E-03  5.000000E-01  0.000000E+00  0.000000E+00  0.000000E+00    1 
 7.750000E-01  7.500000E-03  5.000000E-01  0.000000E+00  0.000000E+00  0.000000E+00    1 
 8.250000E-01  7.500000E-03  5.000000E-01  0.000000E+00  0.000000E+00  0.000000E+00    1 
 8.750000E-01  7.500000E-03  5.000000E-01  0.000000E+00  0.000000E+00  0.000000E+00    1 
 9.250000E-01  7.500000E-03  5.000000E-01  0.000000E+00  0.000000E+00  0.000000E+00    1 
 9.750000E-01  7.500000E-03  5.000000E-01  0.000000E+00  0.000000E+00  0.000000E+00    1 
 1.050000E+00  7.500000E-03  5.000000E-01  0.000000E+00  0.000000E+00  0.000000E+00    1 
 1.150000E+00  7.500000E-03  5.000000E-01  0.000000E+00  0.000000E+00  0.000000E+00    1 
 1.250000E+00  7.500000E-03  5.000000E-01  0.000000E+00  0.000000E+00  0.000000E+00    1 
 1.350000E+00  7.500000E-03  5.000000E-01  0.000000E+00  0.000000E+00  0.000000E+00    1 
 1.450000E+00  7.500000E-03  5.000000E-01  0.000000E+00  0.000000E+00  0.000000E+00    1 
 1.550000E+00  7.500000E-03  5.000000E-01  0.000000E+00  0.000000E+00  0.000000E+00    1 
 1.650000E+00  7.500000E-03  5.000000E-01  0.000000E+00  0.000000E+00  0.000000E+00    1 
 1.750000E+00  7.500000E-03  5.000000E-01  0.000000E+00  0.000000E+00  0.000000E+00    1 
 1.850000E+00  7.500000E-03  5.000000E-01  0.000000E+00  0.000000E+00  0.000000E+00    1 
 1.950000E+00  7.500000E-03  5.000000E-01  0.000000E+00  0.000000E+00  0.000000E+00    1 
 2.100000E+00  7.500000E-03  5.000000E-01  0.000000E+00  0.000000E+00  0.000000E+00    1 
 2.300000E+00  7.500000E-03  5.000000E-01  0.000000E+00  0.000000E+00  0.000000E+00    1 
 2.500000E+00  7.500000E-03  5.000000E-01  0.000000E+00  0.000000E+00  0.000000E+00    1 
 2.700000E+00  7.500000E-03  5.000000E-01  0.000000E+00  0.000000E+00  0.000000E+00    1 
 2.900000E+00  7.500000E-03  5.000000E-01  0.000000E+00  0.000000E+00  0.000000E+00    1 
 3.100000E+00  7.500000E-03  5.000000E-01  0.000000E+00  0.000000E+00  0.000000E+00    1 
 3.300000E+00  7.500000E-03  5.000000E-01  0.000000E+00  0.000000E+00  0.000000E+00    1 
 3.500000E+00  7.500000E-03  5.000000E-01  0.000000E+00  0.000000E+00  0.000000E+00    1 
 3.700000E+00  7.500000E-03  5.000000E-01  0.000000E+00  0.000000E+00  0.000000E+00    1 
 3.900000E+00  7.500000E-03  5.000000E-01  0.000000E+00  0.000000E+00  0.000000E+00    1 
 4.500000E+00  7.500000E-03  5.000000E-01  0.000000E+00  0.000000E+00  0.000000E+00    1 
 5.500000E+00  7.500000E-03  5.000000E-01  0.000000E+00  0.000000E+00  0.000000E+00    1 
 6.500000E+00  7.500000E-03  5.000000E-01  0.000000E+00  0.000000E+00  0.000000E+00    1 
 7.500000E+00  7.500000E-03  5.000000E-01  0.000000E+00  0.000000E+00  0.000000E+00    1 
 5.000000E-03  1.250000E-02  5.000000E-01  0.000000E+00  0.000000E+00  0.000000E+00    1 
 1.500000E-02  1.250000E-02  5.000000E-01  0.000000E+00  0.000000E+00  0.000000E+00    1 
 2.500000E-02  1.250000E-02  5.000000E-01  0.000000E+00  0.000000E+00  0.000000E+00    1 
 3.500000E-02  1.250000E-02  5.000000E-01  0.000000E+00  0.000000E+00  0.000000E+00    1 
 4.500000E-02  1.250000E-02  5.000000E-01  0.000000E+00  0.000000E+00  0.000000E+00    1 
 5.500000E-02  1.250000E-02  5.000000E-01  0.000000E+00  0.000000E+00  0.000000E+00    1 
 6.500000E-02  1.250000E-02  5.000000E-01  0.000000E+00  0.000000E+00  0.000000E+00    1 
 7.500000E-02  1.250000E-02  5.000000E-01  0.000000E+00  0.000000E+00  0.000000E+00    1 
 8.500000E-02  1.250000E-02  5.000000E-01  0.000000E+00  0.000000E+00  0.000000E+00    1 
 9.500000E-02  1.250000E-02  5.000000E-01  0.000000E+00  0.000000E+00  0.000000E+00    1 
 1.100000E-01  1.250000E-02  5.000000E-01  0.000000E+00  0.000000E+00  0.000000E+00    1 
 1.300000E-01  1.250000E-02  5.000000E-01  0.000000E+00  0.000000E+00  0.000000E+00    1 
 1.500000E-01  1.250000E-02  5.000000E-01  0.000000E+00  0.000000E+00  0.000000E+00    1 
 1.700000E-01  1.250000E-02  5.000000E-01  0.000000E+00  0.000000E+00  0.000000E+00    1 
 1.900000E-01  1.250000E-02  5.000000E-01  0.000000E+00  0.000000E+00  0.000000E+00    1 
 2.100000E-01  1.250000E-02  5.000000E-01  0.000000E+00  0.000000E+00  0.000000E+00    1 
 2.300000E-01  1.250000E-02  5.000000E-01  0.000000E+00  0.000000E+00  0.000000E+00    1 
 2.500000E-01  1.250000E-02  5.000000E-01  0.000000E+00  0.000000E+00  0.000000E+00    1 
 2.700000E-01  1.250000E-02  5.000000E-01  0.000000E+00  0.000000E+00  0.000000E+00    1 
 2.900000E-01  1.250000E-02  5.000000E-01  0.000000E+00  0.000000E+00  0.000000E+00    1 
 3.250000E-01  1.250000E-02  5.000000E-01  0.000000E+00  0.000000E+00  0.000000E+00    1 
 3.750000E-01  1.250000E-02  5.000000E-01  0.000000E+00  0.000000E+00  0.000000E+00    1 
 4.250000E-01  1.250000E-02  5.000000E-01  0.000000E+00  0.000000E+00  0.000000E+00    1 
 4.750000E-01  1.250000E-02  5.000000E-01  0.000000E+00  0.000000E+00  0.000000E+00    1 
 5.250000E-01  1.250000E-02  5.000000E-01  0.000000E+00  0.000000E+00  0.000000E+00    1 
 5.750000E-01  1.250000E-02  5.000000E-01  0.000000E+00  0.000000E+00  0.000000E+00    1 
 6.250000E-01  1.250000E-02  5.000000E-01  0.000000E+00  0.000000E+00  0.000000E+00    1 
 6.750000E-01  1.250000E-02  5.000000E-01  0.000000E+00  0.000000E+00  0.000000E+00    1 
 7.250000E-01  1.250000E-02  5.000000E-01  0.000000E+00  0.000000E+00  0.000000E+00    1 
 7.750000E-01  1.250000E-02  5.000000E-01  0.000000E+00  0.000000E+00  0.000000E+00    1 
 8.250000E-01  1.250000E-02  5.000000E-01  0.000000E+00  0.000000E+00  0.000000E+00    1 
 8.750000E-01  1.250000E-02  5.000000E-01  0.000000E+00  0.000000E+00  0.000000E+00    1 
 9.250000E-01  1.250000E-02  5.000000E-01  0.000000E+00  0.000000E+00  0.000000E+00    1 
 9.750000E-01  1.250000E-02  5.000000E-01  0.000000E+00  0.000000E+00  0.000000E+00    1 
 1.050000E+00  1.250000E-02  5.000000E-01  0.000000E+00  0.000000E+00  0.000000E+00    1 
 1.150000E+00  1.250000E-02  5.000000E-01  0.000000E+00  0.000000E+00  0.000000E+00    1 
 1.250000E+00  1.250000E-02  5.000000E-01  0.000000E+00  0.000000E+00  0.000000E+00    1 
 1.350000E+00  1.250000E-02  5.000000E-01  0.000000E+00  0.000000E+00  0.000000E+00    1 
 1.450000E+00  1.250000E-02  5.000000E-01  0.000000E+00  0.000000E+00  0.000000E+00    1 
 1.550000E+00  1.250000E-02  5.000000E-01  0.000000E+00  0.000000E+00  0.000000E+00    1 
 1.650000E+00  1.250000E-02  5.000000E-01  0.000000E+00  0.000000E+00  0.000000E+00    1 
 1.750000E+00  1.250000E-02  5.000000E-01  0.000000E+00  0.000000E+00  0.000000E+00    1 
 1.850000E+00  1.250000E-02  5.000000E-01  0.000000E+00  0.000000E+00  0.000000E+00    1 
 1.950000E+00  1.250000E-02  5.000000E-01  0.000000E+00  0.000000E+00  0.000000E+00    1 
 2.100000E+00  1.250000E-02  5.000000E-01  0.000000E+00  0.000000E+00  0.000000E+00    1 
 2.300000E+00  1.250000E-02  5.000000E-01  0.000000E+00  0.000000E+00  0.000000E+00    1 
 2.500000E+00  1.250000E-02  5.000000E-01  0.000000E+00  0.000000E+00  0.000000E+00    1 
 2.700000E+00  1.250000E-02  5.000000E-01  0.000000E+00  0.000000E+00  0.000000E+00    1 
 2.900000E+00  1.250000E-02  5.000000E-01  0.000000E+00  0.000000E+00  0.000000E+00    1 
 3.100000E+00  1.250000E-02  5.000000E-01  0.000000E+00  0.000000E+00  0.000000E+00    1 
 3.300000E+00  1.250000E-02  5.000000E-01  0.000000E+00  0.000000E+00  0.000000E+00    1 
 3.500000E+00  1.250000E-02  5.000000E-01  0.000000E+00  0.000000E+00  0.000000E+00    1 
 3.700000E+00  1.250000E-02  5.000000E-01  0.000000E+00  0.000000E+00  0.000000E+00    1 
 3.900000E+00  1.250000E-02  5.000000E-01  0.000000E+00  0.000000E+00  0.000000E+00    1 
 4.500000E+00  1.250000E-02  5.000000E-01  0.000000E+00  0.000000E+00  0.000000E+00    1 
 5.500000E+00  1.250000E-02  5.000000E-01  0.000000E+00  0.000000E+00  0.000000E+00    1 
 6.500000E+00  1.250000E-02  5.000000E-01  0.000000E+00  0.000000E+00  0.000000E+00    1 
 7.500000E+00  1.250000E-02  5.000000E-01  0.000000E+00  0.000000E+00  0.000000E+00    1 
 5.000000E-03  1.750000E-02  5.000000E-01  0.000000E+00  0.000000E+00  0.000000E+00    1 
 1.500000E-02  1.750000E-02  5.000000E-01  0.000000E+00  0.000000E+00  0.000000E+00    1 
 2.500000E-02  1.750000E-02  5.000000E-01  0.000000E+00  0.000000E+00  0.000000E+00    1 
 3.500000E-02  1.750000E-02  5.000000E-01  0.000000E+00  0.000000E+00  0.000000E+00    1 
 4.500000E-02  1.750000E-02  5.000000E-01  0.000000E+00  0.000000E+00  0.000000E+00    1 
 5.500000E-02  1.750000E-02  5.000000E-01  0.000000E+00  0.000000E+00  0.000000E+00    1 
 6.500000E-02  1.750000E-02  5.000000E-01  0.000000E+00  0.000000E+00  0.000000E+00    1 
 7.500000E-02  1.750000E-02  5.000000E-01  0.000000E+00  0.000000E+00  0.000000E+00    1 
 8.500000E-02  1.750000E-02  5.000000E-01  0.000000E+00  0.000000E+00  0.000000E+00    1 
 9.500000E-02  1.750000E-02  5.000000E-01  0.000000E+00  0.000000E+00  0.000000E+00    1 
 1.100000E-01  1.750000E-02  5.000000E-01  0.000000E+00  0.000000E+00  0.000000E+00    1 
 1.300000E-01  1.750000E-02  5.000000E-01  0.000000E+00  0.000000E+00  0.000000E+00    1 
 1.500000E-01  1.750000E-02  5.000000E-01  0.000000E+00  0.000000E+00  0.000000E+00    1 
 1.700000E-01  1.750000E-02  5.000000E-01  0.000000E+00  0.000000E+00  0.000000E+00    1 
 1.900000E-01  1.750000E-02  5.000000E-01  0.000000E+00  0.000000E+00  0.000000E+00    1 
 2.100000E-01  1.750000E-02  5.000000E-01  0.000000E+00  0.000000E+00  0.000000E+00    1 
 2.300000E-01  1.750000E-02  5.000000E-01  0.000000E+00  0.000000E+00  0.000000E+00    1 
 2.500000E-01  1.750000E-02  5.000000E-01  0.000000E+00  0.000000E+00  0.000000E+00    1 
 2.700000E-01  1.750000E-02  5.000000E-01  0.000000E+00  0.000000E+00  0.000000E+00    1 
 2.900000E-01  1.750000E-02  5.000000E-01  0.000000E+00  0.000000E+00  0.000000E+00    1 
 3.250000E-01  1.750000E-02  5.000000E-01  0.000000E+00  0.000000E+00  0.000000E+00    1 
 3.750000E-01  1.750000E-02  5.000000E-01  0.000000E+00  0.000000E+00  0.000000E+00    1 
 4.250000E-01  1.750000E-02  5.000000E-01  0.000000E+00  0.000000E+00  0.000000E+00    1 
 4.750000E-01  1.750000E-02  5.000000E-01  0.000000E+00  0.000000E+00  0.000000E+00    1 
 5.250000E-01  1.750000E-02  5.000000E-01  0.000000E+00  0.000000E+00  0.000000E+00    1 
 5.750000E-01  1.750000E-02  5.000000E-01  0.000000E+00  0.000000E+00  0.000000E+00    1 
 6.250000E-01  1.750000E-02  5.000000E-01  0.000000E+00  0.000000E+00  0.000000E+00    1 
 6.750000E-01  1.750000E-02  5.000000E-01  0.000000E+00  0.000000E+00  0.000000E+00    1 
 7.250000E-01  1.750000E-02  5.000000E-01  0.000000E+00  0.000000E+00  0.000000E+00    1 
 7.750000E-01  1.750000E-02  5.000000E-01  0.000000E+00  0.000000E+00  0.000000E+00    1 
 8.250000E-01  1.750000E-02  5.000000E-01  0.000000E+00  0.000000E+00  0.000000E+00    1 
 8.750000E-01  1.750000E-02  5.000000E-01  0.000000E+00  0.000000E+00  0.000000E+00    1 
 9.250000E-01  1.750000E-02  5.000000E-01  0.000000E+00  0.000000E+00  0.000000E+00    1 
 9.750000E-01  1.750000E-02  5.000000E-01  0.000000E+00  0.000000E+00  0.000000E+00    1 
 1.050000E+00  1.750000E-02  5.000000E-01  0.000000E+00  0.000000E+00  0.000000E+00    1 
 1.150000E+00  1.750000E-02  5.000000E-01  0.000000E+00  0.000000E+00  0.000000E+00    1 
 1.250000E+00  1.750000E-02  5.000000E-01  0.000000E+00  0.000000E+00  0.000000E+00    1 
 1.350000E+00  1.750000E-02  5.000000E-01  0.000000E+00  0.000000E+00  0.000000E+00    1 
 1.450000E+00  1.750000E-02  5.000000E-01  0.000000E+00  0.000000E+00  0.000000E+00    1 
 1.550000E+00  1.750000E-02  5.000000E-01  0.000000E+00  0.000000E+00  0.000000E+00    1 
 1.650000E+00  1.750000E-02  5.000000E-01  0.000000E+00  0.000000E+00  0.000000E+00    1 
 1.750000E+00  1.750000E-02  5.000000E-01  0.000000E+00  0.000000E+00  0.000000E+00    1 
 1.850000E+00  1.750000E-02  5.000000E-01  0.000000E+00  0.000000E+00  0.000000E+00    1 
 1.950000E+00  1.750000E-02  5.000000E-01  0.000000E+00  0.000000E+00  0.000000E+00    1 
 2.100000E+00  1.750000E-02  5.000000E-01  0.000000E+00  0.000000E+00  0.000000E+00    1 
 2.300000E+00  1.750000E-02  5.000000E-01  0.000000E+00  0.000000E+00  0.000000E+00    1 
 2.500000E+00  1.750000E-02  5.000000E-01  0.000000E+00  0.000000E+00  0.000000E+00    1 
 2.700000E+00  1.750000E-02  5.000000E-01  0.000000E+00  0.000000E+00  0.000000E+00    1 
 2.900000E+00  1.750000E-02  5.000000E-01  0.000000E+00  0.000000E+00  0.000000E+00    1 
 3.100000E+00  1.750000E-02  5.000000E-01  0.000000E+00  0.000000E+00  0.000000E+00    1 
 3.300000E+00  1.750000E-02  5.000000E-01  0.000000E+00  0.000000E+00  0.000000E+00    1 
 3.500000E+00  1.750000E-02  5.000000E-01  0.000000E+00  0.000000E+00  0.000000E+00    1 
 3.700000E+00  1.750000E-02  5.000000E-01  0.000000E+00  0.000000E+00  0.000000E+00    1 
 3.900000E+00  1.750000E-02  5.000000E-01  0.000000E+00  0.000000E+00  0.000000E+00    1 
 4.500000E+00  1.750000E-02  5.000000E-01  0.000000E+00  0.000000E+00  0.000000E+00    1 
 5.500000E+00  1.750000E-02  5.000000E-01  0.000000E+00  0.000000E+00  0.000000E+00    1 
 6.500000E+00  1.750000E-02  5.000000E-01  0.000000E+00  0.000000E+00  0.000000E+00    1 
 7.500000E+00  1.750000E-02  5.000000E-01  0.000000E+00  0.000000E+00  0.000000E+00    1 
 5.000000E-03  2.250000E-02  5.000000E-01  0.000000E+00  0.000000E+00  0.000000E+00    1 
 1.500000E-02  2.250000E-02  5.000000E-01  0.000000E+00  0.000000E+00  0.000000E+00    1 
 2.500000E-02  2.250000E-02  5.000000E-01  0.000000E+00  0.000000E+00  0.000000E+00    1 
 3.500000E-02  2.250000E-02  5.000000E-01  0.000000E+00  0.000000E+00  0.000000E+00    1 
 4.500000E-02  2.250000E-02  5.000000E-01  0.000000E+00  0.000000E+00  0.000000E+00    1 
 5.500000E-02  2.250000E-02  5.000000E-01  0.000000E+00  0.000000E+00  0.000000E+00    1 
 6.500000E-02  2.250000E-02  5.000000E-01  0.000000E+00  0.000000E+00  0.000000E+00    1 
 7.500000E-02  2.250000E-02  5.000000E-01  0.000000E+00  0.000000E+00  0.000000E+00    1 
 8.500000E-02  2.250000E-02  5.000000E-01  0.000000E+00  0.000000E+00  0.000000E+00    1 
 9.500000E-02  2.250000E-02  5.000000E-01  0.000000E+00  0.000000E+00  0.000000E+00    1 
 1.100000E-01  2.250000E-02  5.000000E-01  0.000000E+00  0.000000E+00  0.000000E+00    1 
 1.300000E-01  2.250000E-02  5.000000E-01  0.000000E+00  0.000000E+00  0.000000E+00    1 
 1.500000E-01  2.250000E-02  5.000000E-01  0.000000E+00  0.000000E+00  0.000000E+00    1 
 1.700000E-01  2.250000E-02  5.000000E-01  0.000000E+00  0.000000E+00  0.000000E+00    1 
 1.900000E-01  2.250000E-02  5.000000E-01  0.000000E+00  0.000000E+00  0.000000E+00    1 
 2.100000E-01  2.250000E-02  5.000000E-01  0.000000E+00  0.000000E+00  0.000000E+00    1 
 2.300000E-01  2.250000E-02  5.000000E-01  0.000000E+00  0.000000E+00  0.000000E+00    1 
 2.500000E-01  2.250000E-02  5.000000E-01  0.000000E+00  0.000000E+00  0.000000E+00    1 
 2.700000E-01  2.250000E-02  5.000000E-01  0.000000E+00  0.000000E+00  0.000000E+00    1 
 2.900000E-01  2.250000E-02  5.000000E-01  0.000000E+00  0.000000E+00  0.000000E+00    1 
 3.250000E-01  2.250000E-02  5.000000E-01  0.000000E+00  0.000000E+00  0.000000E+00    1 
 3.750000E-01  2.250000E-02  5.000000E-01  0.000000E+00  0.000000E+00  0.000000E+00    1 
 4.250000E-01  2.250000E-02  5.000000E-01  0.000000E+00  0.000000E+00  0.000000E+00    1 
 4.750000E-01  2.250000E-02  5.000000E-01  0.000000E+00  0.000000E+00  0.000000E+00    1 
 5.250000E-01  2.250000E-02  5.000000E-01  0.000000E+00  0.000000E+00  0.000000E+00    1 
 5.750000E-01  2.250000E-02  5.000000E-01  0.000000E+00  0.000000E+00  0.000000E+00    1 
 6.250000E-01  2.250000E-02  5.000000E-01  0.000000E+00  0.000000E+00  0.000000E+00    1 
 6.750000E-01  2.250000E-02  5.000000E-01  0.000000E+00  0.000000E+00  0.000000E+00    1 
 7.250000E-01  2.250000E-02  5.000000E-01  0.000000E+00  0.000000E+00  0.000000E+00    1 
 7.750000E-01  2.250000E-02  5.000000E-01  0.000000E+00  0.000000E+00  0.000000E+00    1 
 8.250000E-01  2.250000E-02  5.000000E-01  0.000000E+00  0.000000E+00  0.000000E+00    1 
 8.750000E-01  2.250000E-02  5.000000E-01  0.000000E+00  0.000000E+00  0.000000E+00    1 
 9.250000E-01  2.250000E-02  5.000000E-01  0.000000E+00  0.000000E+00  0.000000E+00    1 
 9.750000E-01  2.250000E-02  5.000000E-01  0.000000E+00  0.000000E+00  0.000000E+00    1 
 1.050000E+00  2.250000E-02  5.000000E-01  0.000000E+00  0.000000E+00  0.000000E+00    1 
 1.150000E+00  2.250000E-02  5.000000E-01  0.000000E+00  0.000000E+00  0.000000E+00    1 
 1.250000E+00  2.250000E-02  5.000000E-01  0.000000E+00  0.000000E+00  0.000000E+00    1 
 1.350000E+00  2.250000E-02  5.000000E-01  0.000000E+00  0.000000E+00  0.000000E+00    1 
 1.450000E+00  2.250000E-02  5.000000E-01  0.000000E+00  0.000000E+00  0.000000E+00    1 
 1.550000E+00  2.250000E-02  5.000000E-01  0.000000E+00  0.000000E+00  0.000000E+00    1 
 1.650000E+00  2.250000E-02  5.000000E-01  0.000000E+00  0.000000E+00  0.000000E+00    1 
 1.750000E+00  2.250000E-02  5.000000E-01  0.000000E+00  0.000000E+00  0.000000E+00    1 
 1.850000E+00  2.250000E-02  5.000000E-01  0.000000E+00  0.000000E+00  0.000000E+00    1 
 1.950000E+00  2.250000E-02  5.000000E-01  0.000000E+00  0.000000E+00  0.000000E+00    1 
 2.100000E+00  2.250000E-02  5.000000E-01  0.000000E+00  0.000000E+00  0.000000E+00    1 
 2.300000E+00  2.250000E-02  5.000000E-01  0.000000E+00  0.000000E+00  0.000000E+00    1 
 2.500000E+00  2.250000E-02  5.000000E-01  0.000000E+00  0.000000E+00  0.000000E+00    1 
 2.700000E+00  2.250000E-02  5.000000E-01  0.000000E+00  0.000000E+00  0.000000E+00    1 
 2.900000E+00  2.250000E-02  5.000000E-01  0.000000E+00  0.000000E+00  0.000000E+00    1 
 3.100000E+00  2.250000E-02  5.000000E-01  0.000000E+00  0.000000E+00  0.000000E+00    1 
 3.300000E+00  2.250000E-02  5.000000E-01  0.000000E+00  0.000000E+00  0.000000E+00    1 
 3.500000E+00  2.250000E-02  5.000000E-01  0.000000E+00  0.000000E+00  0.000000E+00    1 
 3.700000E+00  2.250000E-02  5.000000E-01  0.000000E+00  0.000000E+00  0.000000E+00    1 
 3.900000E+00  2.250000E-02  5.000000E-01  0.000000E+00  0.000000E+00  0.000000E+00    1 
 4.500000E+00  2.250000E-02  5.000000E-01  0.000000E+00  0.000000E+00  0.000000E+00    1 
 5.500000E+00  2.250000E-02  5.000000E-01  0.000000E+00  0.000000E+00  0.000000E+00    1 
 6.500000E+00  2.250000E-02  5.000000E-01  0.000000E+00  0.000000E+00  0.000000E+00    1 
 7.500000E+00  2.250000E-02  5.000000E-01  0.000000E+00  0.000000E+00  0.000000E+00    1 
 5.000000E-03  2.750000E-02  5.000000E-01  0.000000E+00  0.000000E+00  0.000000E+00    1 
 1.500000E-02  2.750000E-02  5.000000E-01  0.000000E+00  0.000000E+00  0.000000E+00    1 
 2.500000E-02  2.750000E-02  5.000000E-01  0.000000E+00  0.000000E+00  0.000000E+00    1 
 3.500000E-02  2.750000E-02  5.000000E-01  0.000000E+00  0.000000E+00  0.000000E+00    1 
 4.500000E-02  2.750000E-02  5.000000E-01  0.000000E+00  0.000000E+00  0.000000E+00    1 
 5.500000E-02  2.750000E-02  5.000000E-01  0.000000E+00  0.000000E+00  0.000000E+00    1 
 6.500000E-02  2.750000E-02  5.000000E-01  0.000000E+00  0.000000E+00  0.000000E+00    1 
 7.500000E-02  2.750000E-02  5.000000E-01  0.000000E+00  0.000000E+00  0.000000E+00    1 
 8.500000E-02  2.750000E-02  5.000000E-01  0.000000E+00  0.000000E+00  0.000000E+00    1 
 9.500000E-02  2.750000E-02  5.000000E-01  0.000000E+00  0.000000E+00  0.000000E+00    1 
 1.100000E-01  2.750000E-02  5.000000E-01  0.000000E+00  0.000000E+00  0.000000E+00    1 
 1.300000E-01  2.750000E-02  5.000000E-01  0.000000E+00  0.000000E+00  0.000000E+00    1 
 1.500000E-01  2.750000E-02  5.000000E-01  0.000000E+00  0.000000E+00  0.000000E+00    1 
 1.700000E-01  2.750000E-02  5.000000E-01  0.000000E+00  0.000000E+00  0.000000E+00    1 
 1.900000E-01  2.750000E-02  5.000000E-01  0.000000E+00  0.000000E+00  0.000000E+00    1 
 2.100000E-01  2.750000E-02  5.000000E-01  0.000000E+00  0.000000E+00  0.000000E+00    1 
 2.300000E-01  2.750000E-02  5.000000E-01  0.000000E+00  0.000000E+00  0.000000E+00    1 
 2.500000E-01  2.750000E-02  5.000000E-01  0.000000E+00  0.000000E+00  0.000000E+00    1 
 2.700000E-01  2.750000E-02  5.000000E-01  0.000000E+00  0.000000E+00  0.000000E+00    1 
 2.900000E-01  2.750000E-02  5.000000E-01  0.000000E+00  0.000000E+00  0.000000E+00    1 
 3.250000E-01  2.750000E-02  5.000000E-01  0.000000E+00  0.000000E+00  0.000000E+00    1 
 3.750000E-01  2.750000E-02  5.000000E-01  0.000000E+00  0.000000E+00  0.000000E+00    1 
 4.250000E-01  2.750000E-02  5.000000E-01  0.000000E+00  0.000000E+00  0.000000E+00    1 
 4.750000E-01  2.750000E-02  5.000000E-01  0.000000E+00  0.000000E+00  0.000000E+00    1 
 5.250000E-01  2.750000E-02  5.000000E-01  0.000000E+00  0.000000E+00  0.000000E+00    1 
 5.750000E-01  2.750000E-02  5.000000E-01  0.000000E+00  0.000000E+00  0.000000E+00    1 
 6.250000E-01  2.750000E-02  5.000000E-01  0.000000E+00  0.000000E+00  0.000000E+00    1 
 6.750000E-01  2.750000E-02  5.000000E-01  0.000000E+00  0.000000E+00  0.000000E+00    1 
 7.250000E-01  2.750000E-02  5.000000E-01  0.000000E+00  0.000000E+00  0.000000E+00    1 
 7.750000E-01  2.750000E-02  5.000000E-01  0.000000E+00  0.000000E+00  0.000000E+00    1 
 8.250000E-01  2.750000E-02  5.000000E-01  0.000000E+00  0.000000E+00  0.000000E+00    1 
 8.750000E-01  2.750000E-02  5.000000E-01  0.000000E+00  0.000000E+00  0.000000E+00    1 
 9.250000E-01  2.750000E-02  5.000000E-01  0.000000E+00  0.000000E+00  0.000000E+00    1 
 9.750000E-01  2.750000E-02  5.000000E-01  0.000000E+00  0.000000E+00  0.000000E+00    1 
 1.050000E+00  2.750000E-02  5.000000E-01  0.000000E+00  0.000000E+00  0.000000E+00    1 
 1.150000E+00  2.750000E-02  5.000000E-01  0.000000E+00  0.000000E+00  0.000000E+00    1 
 1.250000E+00  2.750000E-02  5.000000E-01  0.000000E+00  0.000000E+00  0.000000E+00    1 
 1.350000E+00  2.750000E-02  5.000000E-01  0.000000E+00  0.000000E+00  0.000000E+00    1 
 1.450000E+00  2.750000E-02  5.000000E-01  0.000000E+00  0.000000E+00  0.000000E+00    1 
 1.550000E+00  2.750000E-02  5.000000E-01  0.000000E+00  0.000000E+00  0.000000E+00    1 
 1.650000E+00  2.750000E-02  5.000000E-01  0.000000E+00  0.000000E+00  0.000000E+00    1 