TITLE = "  5.00000E+02 [d]"
VARIABLES="dist [m]","2-Free ion Tracer [M] obs (20) (1.95 0.5 0.5)"
ZONE T="  5.00000E+02", I=   50,J=1, K=1, DATAPACKING=POINT
 1.000000E-02  2.639332E-18 
 3.000000E-02  7.788857E-18 
 5.000000E-02  2.770811E-17 
 7.000000E-02  9.871483E-17 
 9.000000E-02  3.466520E-16 
 1.100000E-01  1.198092E-15 
 1.300000E-01  4.073842E-15 
 1.500000E-01  1.362412E-14 
 1.700000E-01  4.480013E-14 
 1.900000E-01  1.448072E-13 
 2.100000E-01  4.599516E-13 
 2.300000E-01  1.435204E-12 
 2.500000E-01  4.398051E-12 
 2.700000E-01  1.323165E-11 
 2.900000E-01  3.906919E-11 
 3.100000E-01  1.131820E-10 
 3.300000E-01  3.215857E-10 
 3.500000E-01  8.958651E-10 
 3.700000E-01  2.446035E-09 
 3.900000E-01  6.543373E-09 
 4.100000E-01  1.714360E-08 
 4.300000E-01  4.397474E-08 
 4.500000E-01  1.103935E-07 
 4.700000E-01  2.711176E-07 
 4.900000E-01  6.511491E-07 
 5.100000E-01  1.528777E-06 
 5.300000E-01  3.507365E-06 
 5.500000E-01  7.859997E-06 
 5.700000E-01  1.719889E-05 
 5.900000E-01  3.673230E-05 
 6.100000E-01  7.654210E-05 
 6.300000E-01  1.555590E-04 
 6.500000E-01  3.082295E-04 
 6.700000E-01  5.952298E-04 
 6.900000E-01  1.119903E-03 
 7.100000E-01  2.052218E-03 
 7.300000E-01  3.661733E-03 
 7.500000E-01  6.359962E-03 
 7.700000E-01  1.075045E-02 
 7.900000E-01  1.768153E-02 
 8.100000E-01  2.829250E-02 
 8.300000E-01  4.403937E-02 
 8.500000E-01  6.668320E-02 
 8.700000E-01  9.822346E-02 
 8.900000E-01  1.407634E-01 
 9.100000E-01  1.963049E-01 
 9.300000E-01  2.664860E-01 
 9.500000E-01  3.522909E-01 
 9.700000E-01  4.537823E-01 
 9.900000E-01  5.699072E-01 
