TITLE = "  5.00000E+02 [d]"
VARIABLES="X [m]","Y [m]","Z [m]","Total Tracer [M]","Material ID"
ZONE T="5.00000E+02", STRANDID=1, SOLUTIONTIME=5.00000E+02, I=101, J=2, K=2, VARLOCATION=([4-5]=CELLCENTERED), DATAPACKING=BLOCK
 0.000000E+00  1.000000E-01  2.000000E-01  3.000000E-01  4.000000E-01  5.000000E-01  6.000000E-01  7.000000E-01  8.000000E-01  9.000000E-01 
 1.000000E+00  1.100000E+00  1.200000E+00  1.300000E+00  1.400000E+00  1.500000E+00  1.600000E+00  1.700000E+00  1.800000E+00  1.900000E+00 
 2.000000E+00  2.100000E+00  2.200000E+00  2.300000E+00  2.400000E+00  2.500000E+00  2.600000E+00  2.700000E+00  2.800000E+00  2.900000E+00 
 3.000000E+00  3.100000E+00  3.200000E+00  3.300000E+00  3.400000E+00  3.500000E+00  3.600000E+00  3.700000E+00  3.800000E+00  3.900000E+00 
 4.000000E+00  4.100000E+00  4.200000E+00  4.300000E+00  4.400000E+00  4.500000E+00  4.600000E+00  4.700000E+00  4.800000E+00  4.900000E+00 
 5.000000E+00  5.100000E+00  5.200000E+00  5.300000E+00  5.400000E+00  5.500000E+00  5.600000E+00  5.700000E+00  5.800000E+00  5.900000E+00 
 6.000000E+00  6.100000E+00  6.200000E+00  6.300000E+00  6.400000E+00  6.500000E+00  6.600000E+00  6.700000E+00  6.800000E+00  6.900000E+00 
 7.000000E+00  7.100000E+00  7.200000E+00  7.300000E+00  7.400000E+00  7.500000E+00  7.600000E+00  7.700000E+00  7.800000E+00  7.900000E+00 
 8.000000E+00  8.100000E+00  8.200000E+00  8.300000E+00  8.400000E+00  8.500000E+00  8.600000E+00  8.700000E+00  8.800000E+00  8.900000E+00 
 9.000000E+00  9.100000E+00  9.200000E+00  9.300000E+00  9.400000E+00  9.500000E+00  9.600000E+00  9.700000E+00  9.800000E+00  9.900000E+00 
 1.000000E+01  0.000000E+00  1.000000E-01  2.000000E-01  3.000000E-01  4.000000E-01  5.000000E-01  6.000000E-01  7.000000E-01  8.000000E-01 
 9.000000E-01  1.000000E+00  1.100000E+00  1.200000E+00  1.300000E+00  1.400000E+00  1.500000E+00  1.600000E+00  1.700000E+00  1.800000E+00 
 1.900000E+00  2.000000E+00  2.100000E+00  2.200000E+00  2.300000E+00  2.400000E+00  2.500000E+00  2.600000E+00  2.700000E+00  2.800000E+00 
 2.900000E+00  3.000000E+00  3.100000E+00  3.200000E+00  3.300000E+00  3.400000E+00  3.500000E+00  3.600000E+00  3.700000E+00  3.800000E+00 
 3.900000E+00  4.000000E+00  4.100000E+00  4.200000E+00  4.300000E+00  4.400000E+00  4.500000E+00  4.600000E+00  4.700000E+00  4.800000E+00 
 4.900000E+00  5.000000E+00  5.100000E+00  5.200000E+00  5.300000E+00  5.400000E+00  5.500000E+00  5.600000E+00  5.700000E+00  5.800000E+00 
 5.900000E+00  6.000000E+00  6.100000E+00  6.200000E+00  6.300000E+00  6.400000E+00  6.500000E+00  6.600000E+00  6.700000E+00  6.800000E+00 
 6.900000E+00  7.000000E+00  7.100000E+00  7.200000E+00  7.300000E+00  7.400000E+00  7.500000E+00  7.600000E+00  7.700000E+00  7.800000E+00 
 7.900000E+00  8.000000E+00  8.100000E+00  8.200000E+00  8.300000E+00  8.400000E+00  8.500000E+00  8.600000E+00  8.700000E+00  8.800000E+00 
 8.900000E+00  9.000000E+00  9.100000E+00  9.200000E+00  9.300000E+00  9.400000E+00  9.500000E+00  9.600000E+00  9.700000E+00  9.800000E+00 
 9.900000E+00  1.000000E+01  0.000000E+00  1.000000E-01  2.000000E-01  3.000000E-01  4.000000E-01  5.000000E-01  6.000000E-01  7.000000E-01 
 8.000000E-01  9.000000E-01  1.000000E+00  1.100000E+00  1.200000E+00  1.300000E+00  1.400000E+00  1.500000E+00  1.600000E+00  1.700000E+00 
 1.800000E+00  1.900000E+00  2.000000E+00  2.100000E+00  2.200000E+00  2.300000E+00  2.400000E+00  2.500000E+00  2.600000E+00  2.700000E+00 
 2.800000E+00  2.900000E+00  3.000000E+00  3.100000E+00  3.200000E+00  3.300000E+00  3.400000E+00  3.500000E+00  3.600000E+00  3.700000E+00 
 3.800000E+00  3.900000E+00  4.000000E+00  4.100000E+00  4.200000E+00  4.300000E+00  4.400000E+00  4.500000E+00  4.600000E+00  4.700000E+00 
 4.800000E+00  4.900000E+00  5.000000E+00  5.100000E+00  5.200000E+00  5.300000E+00  5.400000E+00  5.500000E+00  5.600000E+00  5.700000E+00 
 5.800000E+00  5.900000E+00  6.000000E+00  6.100000E+00  6.200000E+00  6.300000E+00  6.400000E+00  6.500000E+00  6.600000E+00  6.700000E+00 
 6.800000E+00  6.900000E+00  7.000000E+00  7.100000E+00  7.200000E+00  7.300000E+00  7.400000E+00  7.500000E+00  7.600000E+00  7.700000E+00 
 7.800000E+00  7.900000E+00  8.000000E+00  8.100000E+00  8.200000E+00  8.300000E+00  8.400000E+00  8.500000E+00  8.600000E+00  8.700000E+00 
 8.800000E+00  8.900000E+00  9.000000E+00  9.100000E+00  9.200000E+00  9.300000E+00  9.400000E+00  9.500000E+00  9.600000E+00  9.700000E+00 
 9.800000E+00  9.900000E+00  1.000000E+01  0.000000E+00  1.000000E-01  2.000000E-01  3.000000E-01  4.000000E-01  5.000000E-01  6.000000E-01 
 7.000000E-01  8.000000E-01  9.000000E-01  1.000000E+00  1.100000E+00  1.200000E+00  1.300000E+00  1.400000E+00  1.500000E+00  1.600000E+00 
 1.700000E+00  1.800000E+00  1.900000E+00  2.000000E+00  2.100000E+00  2.200000E+00  2.300000E+00  2.400000E+00  2.500000E+00  2.600000E+00 
 2.700000E+00  2.800000E+00  2.900000E+00  3.000000E+00  3.100000E+00  3.200000E+00  3.300000E+00  3.400000E+00  3.500000E+00  3.600000E+00 
 3.700000E+00  3.800000E+00  3.900000E+00  4.000000E+00  4.100000E+00  4.200000E+00  4.300000E+00  4.400000E+00  4.500000E+00  4.600000E+00 
 4.700000E+00  4.800000E+00  4.900000E+00  5.000000E+00  5.100000E+00  5.200000E+00  5.300000E+00  5.400000E+00  5.500000E+00  5.600000E+00 
 5.700000E+00  5.800000E+00  5.900000E+00  6.000000E+00  6.100000E+00  6.200000E+00  6.300000E+00  6.400000E+00  6.500000E+00  6.600000E+00 
 6.700000E+00  6.800000E+00  6.900000E+00  7.000000E+00  7.100000E+00  7.200000E+00  7.300000E+00  7.400000E+00  7.500000E+00  7.600000E+00 
 7.700000E+00  7.800000E+00  7.900000E+00  8.000000E+00  8.100000E+00  8.200000E+00  8.300000E+00  8.400000E+00  8.500000E+00  8.600000E+00 
 8.700000E+00  8.800000E+00  8.900000E+00  9.000000E+00  9.100000E+00  9.200000E+00  9.300000E+00  9.400000E+00  9.500000E+00  9.600000E+00 
 9.700000E+00  9.800000E+00  9.900000E+00  1.000000E+01 
 0.000000E+00  0.000000E+00  0.000000E+00  0.000000E+00  0.000000E+00  0.000000E+00  0.000000E+00  0.000000E+00  0.000000E+00  0.000000E+00 
 0.000000E+00  0.000000E+00  0.000000E+00  0.000000E+00  0.000000E+00  0.000000E+00  0.000000E+00  0.000000E+00  0.000000E+00  0.000000E+00 
 0.000000E+00  0.000000E+00  0.000000E+00  0.000000E+00  0.000000E+00  0.000000E+00  0.000000E+00  0.000000E+00  0.000000E+00  0.000000E+00 
 0.000000E+00  0.000000E+00  0.000000E+00  0.000000E+00  0.000000E+00  0.000000E+00  0.000000E+00  0.000000E+00  0.000000E+00  0.000000E+00 
 0.000000E+00  0.000000E+00  0.000000E+00  0.000000E+00  0.000000E+00  0.000000E+00  0.000000E+00  0.000000E+00  0.000000E+00  0.000000E+00 
 0.000000E+00  0.000000E+00  0.000000E+00  0.000000E+00  0.000000E+00  0.000000E+00  0.000000E+00  0.000000E+00  0.000000E+00  0.000000E+00 
 0.000000E+00  0.000000E+00  0.000000E+00  0.000000E+00  0.000000E+00  0.000000E+00  0.000000E+00  0.000000E+00  0.000000E+00  0.000000E+00 
 0.000000E+00  0.000000E+00  0.000000E+00  0.000000E+00  0.000000E+00  0.000000E+00  0.000000E+00  0.000000E+00  0.000000E+00  0.000000E+00 
 0.000000E+00  0.000000E+00  0.000000E+00  0.000000E+00  0.000000E+00  0.000000E+00  0.000000E+00  0.000000E+00  0.000000E+00  0.000000E+00 
 0.000000E+00  0.000000E+00  0.000000E+00  0.000000E+00  0.000000E+00  0.000000E+00  0.000000E+00  0.000000E+00  0.000000E+00  0.000000E+00 
 0.000000E+00  1.000000E+00  1.000000E+00  1.000000E+00  1.000000E+00  1.000000E+00  1.000000E+00  1.000000E+00  1.000000E+00  1.000000E+00 
 1.000000E+00  1.000000E+00  1.000000E+00  1.000000E+00  1.000000E+00  1.000000E+00  1.000000E+00  1.000000E+00  1.000000E+00  1.000000E+00 
 1.000000E+00  1.000000E+00  1.000000E+00  1.000000E+00  1.000000E+00  1.000000E+00  1.000000E+00  1.000000E+00  1.000000E+00  1.000000E+00 
 1.000000E+00  1.000000E+00  1.000000E+00  1.000000E+00  1.000000E+00  1.000000E+00  1.000000E+00  1.000000E+00  1.000000E+00  1.000000E+00 
 1.000000E+00  1.000000E+00  1.000000E+00  1.000000E+00  1.000000E+00  1.000000E+00  1.000000E+00  1.000000E+00  1.000000E+00  1.000000E+00 
 1.000000E+00  1.000000E+00  1.000000E+00  1.000000E+00  1.000000E+00  1.000000E+00  1.000000E+00  1.000000E+00  1.000000E+00  1.000000E+00 
 1.000000E+00  1.000000E+00  1.000000E+00  1.000000E+00  1.000000E+00  1.000000E+00  1.000000E+00  1.000000E+00  1.000000E+00  1.000000E+00 
 1.000000E+00  1.000000E+00  1.000000E+00  1.000000E+00  1.000000E+00  1.000000E+00  1.000000E+00  1.000000E+00  1.000000E+00  1.000000E+00 
 1.000000E+00  1.000000E+00  1.000000E+00  1.000000E+00  1.000000E+00  1.000000E+00  1.000000E+00  1.000000E+00  1.000000E+00  1.000000E+00 
 1.000000E+00  1.000000E+00  1.000000E+00  1.000000E+00  1.000000E+00  1.000000E+00  1.000000E+00  1.000000E+00  1.000000E+00  1.000000E+00 
 1.000000E+00  1.000000E+00  0.000000E+00  0.000000E+00  0.000000E+00  0.000000E+00  0.000000E+00  0.000000E+00  0.000000E+00  0.000000E+00 
 0.000000E+00  0.000000E+00  0.000000E+00  0.000000E+00  0.000000E+00  0.000000E+00  0.000000E+00  0.000000E+00  0.000000E+00  0.000000E+00 
 0.000000E+00  0.000000E+00  0.000000E+00  0.000000E+00  0.000000E+00  0.000000E+00  0.000000E+00  0.000000E+00  0.000000E+00  0.000000E+00 
 0.000000E+00  0.000000E+00  0.000000E+00  0.000000E+00  0.000000E+00  0.000000E+00  0.000000E+00  0.000000E+00  0.000000E+00  0.000000E+00 
 0.000000E+00  0.000000E+00  0.000000E+00  0.000000E+00  0.000000E+00  0.000000E+00  0.000000E+00  0.000000E+00  0.000000E+00  0.000000E+00 
 0.000000E+00  0.000000E+00  0.000000E+00  0.000000E+00  0.000000E+00  0.000000E+00  0.000000E+00  0.000000E+00  0.000000E+00  0.000000E+00 
 0.000000E+00  0.000000E+00  0.000000E+00  0.000000E+00  0.000000E+00  0.000000E+00  0.000000E+00  0.000000E+00  0.000000E+00  0.000000E+00 
 0.000000E+00  0.000000E+00  0.000000E+00  0.000000E+00  0.000000E+00  0.000000E+00  0.000000E+00  0.000000E+00  0.000000E+00  0.000000E+00 
 0.000000E+00  0.000000E+00  0.000000E+00  0.000000E+00  0.000000E+00  0.000000E+00  0.000000E+00  0.000000E+00  0.000000E+00  0.000000E+00 
 0.000000E+00  0.000000E+00  0.000000E+00  0.000000E+00  0.000000E+00  0.000000E+00  0.000000E+00  0.000000E+00  0.000000E+00  0.000000E+00 
 0.000000E+00  0.000000E+00  0.000000E+00  1.000000E+00  1.000000E+00  1.000000E+00  1.000000E+00  1.000000E+00  1.000000E+00  1.000000E+00 
 1.000000E+00  1.000000E+00  1.000000E+00  1.000000E+00  1.000000E+00  1.000000E+00  1.000000E+00  1.000000E+00  1.000000E+00  1.000000E+00 
 1.000000E+00  1.000000E+00  1.000000E+00  1.000000E+00  1.000000E+00  1.000000E+00  1.000000E+00  1.000000E+00  1.000000E+00  1.000000E+00 
 1.000000E+00  1.000000E+00  1.000000E+00  1.000000E+00  1.000000E+00  1.000000E+00  1.000000E+00  1.000000E+00  1.000000E+00  1.000000E+00 
 1.000000E+00  1.000000E+00  1.000000E+00  1.000000E+00  1.000000E+00  1.000000E+00  1.000000E+00  1.000000E+00  1.000000E+00  1.000000E+00 
 1.000000E+00  1.000000E+00  1.000000E+00  1.000000E+00  1.000000E+00  1.000000E+00  1.000000E+00  1.000000E+00  1.000000E+00  1.000000E+00 
 1.000000E+00  1.000000E+00  1.000000E+00  1.000000E+00  1.000000E+00  1.000000E+00  1.000000E+00  1.000000E+00  1.000000E+00  1.000000E+00 
 1.000000E+00  1.000000E+00  1.000000E+00  1.000000E+00  1.000000E+00  1.000000E+00  1.000000E+00  1.000000E+00  1.000000E+00  1.000000E+00 
 1.000000E+00  1.000000E+00  1.000000E+00  1.000000E+00  1.000000E+00  1.000000E+00  1.000000E+00  1.000000E+00  1.000000E+00  1.000000E+00 
 1.000000E+00  1.000000E+00  1.000000E+00  1.000000E+00  1.000000E+00  1.000000E+00  1.000000E+00  1.000000E+00  1.000000E+00  1.000000E+00 
 1.000000E+00  1.000000E+00  1.000000E+00  1.000000E+00 
 0.000000E+00  0.000000E+00  0.000000E+00  0.000000E+00  0.000000E+00  0.000000E+00  0.000000E+00  0.000000E+00  0.000000E+00  0.000000E+00 
 0.000000E+00  0.000000E+00  0.000000E+00  0.000000E+00  0.000000E+00  0.000000E+00  0.000000E+00  0.000000E+00  0.000000E+00  0.000000E+00 
 0.000000E+00  0.000000E+00  0.000000E+00  0.000000E+00  0.000000E+00  0.000000E+00  0.000000E+00  0.000000E+00  0.000000E+00  0.000000E+00 
 0.000000E+00  0.000000E+00  0.000000E+00  0.000000E+00  0.000000E+00  0.000000E+00  0.000000E+00  0.000000E+00  0.000000E+00  0.000000E+00 
 0.000000E+00  0.000000E+00  0.000000E+00  0.000000E+00  0.000000E+00  0.000000E+00  0.000000E+00  0.000000E+00  0.000000E+00  0.000000E+00 
 0.000000E+00  0.000000E+00  0.000000E+00  0.000000E+00  0.000000E+00  0.000000E+00  0.000000E+00  0.000000E+00  0.000000E+00  0.000000E+00 
 0.000000E+00  0.000000E+00  0.000000E+00  0.000000E+00  0.000000E+00  0.000000E+00  0.000000E+00  0.000000E+00  0.000000E+00  0.000000E+00 
 0.000000E+00  0.000000E+00  0.000000E+00  0.000000E+00  0.000000E+00  0.000000E+00  0.000000E+00  0.000000E+00  0.000000E+00  0.000000E+00 
 0.000000E+00  0.000000E+00  0.000000E+00  0.000000E+00  0.000000E+00  0.000000E+00  0.000000E+00  0.000000E+00  0.000000E+00  0.000000E+00 
 0.000000E+00  0.000000E+00  0.000000E+00  0.000000E+00  0.000000E+00  0.000000E+00  0.000000E+00  0.000000E+00  0.000000E+00  0.000000E+00 
 0.000000E+00  0.000000E+00  0.000000E+00  0.000000E+00  0.000000E+00  0.000000E+00  0.000000E+00  0.000000E+00  0.000000E+00  0.000000E+00 
 0.000000E+00  0.000000E+00  0.000000E+00  0.000000E+00  0.000000E+00  0.000000E+00  0.000000E+00  0.000000E+00  0.000000E+00  0.000000E+00 
 0.000000E+00  0.000000E+00  0.000000E+00  0.000000E+00  0.000000E+00  0.000000E+00  0.000000E+00  0.000000E+00  0.000000E+00  0.000000E+00 
 0.000000E+00  0.000000E+00  0.000000E+00  0.000000E+00  0.000000E+00  0.000000E+00  0.000000E+00  0.000000E+00  0.000000E+00  0.000000E+00 
 0.000000E+00  0.000000E+00  0.000000E+00  0.000000E+00  0.000000E+00  0.000000E+00  0.000000E+00  0.000000E+00  0.000000E+00  0.000000E+00 
 0.000000E+00  0.000000E+00  0.000000E+00  0.000000E+00  0.000000E+00  0.000000E+00  0.000000E+00  0.000000E+00  0.000000E+00  0.000000E+00 
 0.000000E+00  0.000000E+00  0.000000E+00  0.000000E+00  0.000000E+00  0.000000E+00  0.000000E+00  0.000000E+00  0.000000E+00  0.000000E+00 
 0.000000E+00  0.000000E+00  0.000000E+00  0.000000E+00  0.000000E+00  0.000000E+00  0.000000E+00  0.000000E+00  0.000000E+00  0.000000E+00 
 0.000000E+00  0.000000E+00  0.000000E+00  0.000000E+00  0.000000E+00  0.000000E+00  0.000000E+00  0.000000E+00  0.000000E+00  0.000000E+00 
 0.000000E+00  0.000000E+00  0.000000E+00  0.000000E+00  0.000000E+00  0.000000E+00  0.000000E+00  0.000000E+00  0.000000E+00  0.000000E+00 
 0.000000E+00  0.000000E+00  1.000000E+00  1.000000E+00  1.000000E+00  1.000000E+00  1.000000E+00  1.000000E+00  1.000000E+00  1.000000E+00 
 1.000000E+00  1.000000E+00  1.000000E+00  1.000000E+00  1.000000E+00  1.000000E+00  1.000000E+00  1.000000E+00  1.000000E+00  1.000000E+00 
 1.000000E+00  1.000000E+00  1.000000E+00  1.000000E+00  1.000000E+00  1.000000E+00  1.000000E+00  1.000000E+00  1.000000E+00  1.000000E+00 
 1.000000E+00  1.000000E+00  1.000000E+00  1.000000E+00  1.000000E+00  1.000000E+00  1.000000E+00  1.000000E+00  1.000000E+00  1.000000E+00 
 1.000000E+00  1.000000E+00  1.000000E+00  1.000000E+00  1.000000E+00  1.000000E+00  1.000000E+00  1.000000E+00  1.000000E+00  1.000000E+00 
 1.000000E+00  1.000000E+00  1.000000E+00  1.000000E+00  1.000000E+00  1.000000E+00  1.000000E+00  1.000000E+00  1.000000E+00  1.000000E+00 
 1.000000E+00  1.000000E+00  1.000000E+00  1.000000E+00  1.000000E+00  1.000000E+00  1.000000E+00  1.000000E+00  1.000000E+00  1.000000E+00 
 1.000000E+00  1.000000E+00  1.000000E+00  1.000000E+00  1.000000E+00  1.000000E+00  1.000000E+00  1.000000E+00  1.000000E+00  1.000000E+00 
 1.000000E+00  1.000000E+00  1.000000E+00  1.000000E+00  1.000000E+00  1.000000E+00  1.000000E+00  1.000000E+00  1.000000E+00  1.000000E+00 
 1.000000E+00  1.000000E+00  1.000000E+00  1.000000E+00  1.000000E+00  1.000000E+00  1.000000E+00  1.000000E+00  1.000000E+00  1.000000E+00 
 1.000000E+00  1.000000E+00  1.000000E+00  1.000000E+00  1.000000E+00  1.000000E+00  1.000000E+00  1.000000E+00  1.000000E+00  1.000000E+00 
 1.000000E+00  1.000000E+00  1.000000E+00  1.000000E+00  1.000000E+00  1.000000E+00  1.000000E+00  1.000000E+00  1.000000E+00  1.000000E+00 
 1.000000E+00  1.000000E+00  1.000000E+00  1.000000E+00  1.000000E+00  1.000000E+00  1.000000E+00  1.000000E+00  1.000000E+00  1.000000E+00 
 1.000000E+00  1.000000E+00  1.000000E+00  1.000000E+00  1.000000E+00  1.000000E+00  1.000000E+00  1.000000E+00  1.000000E+00  1.000000E+00 
 1.000000E+00  1.000000E+00  1.000000E+00  1.000000E+00  1.000000E+00  1.000000E+00  1.000000E+00  1.000000E+00  1.000000E+00  1.000000E+00 
 1.000000E+00  1.000000E+00  1.000000E+00  1.000000E+00  1.000000E+00  1.000000E+00  1.000000E+00  1.000000E+00  1.000000E+00  1.000000E+00 
 1.000000E+00  1.000000E+00  1.000000E+00  1.000000E+00  1.000000E+00  1.000000E+00  1.000000E+00  1.000000E+00  1.000000E+00  1.000000E+00 
 1.000000E+00  1.000000E+00  1.000000E+00  1.000000E+00  1.000000E+00  1.000000E+00  1.000000E+00  1.000000E+00  1.000000E+00  1.000000E+00 
 1.000000E+00  1.000000E+00  1.000000E+00  1.000000E+00  1.000000E+00  1.000000E+00  1.000000E+00  1.000000E+00  1.000000E+00  1.000000E+00 
 1.000000E+00  1.000000E+00  1.000000E+00  1.000000E+00  1.000000E+00  1.000000E+00  1.000000E+00  1.000000E+00  1.000000E+00  1.000000E+00 
 1.000000E+00  1.000000E+00  1.000000E+00  1.000000E+00 
 9.889920E-01  9.689041E-01  9.489206E-01  9.290525E-01  9.093098E-01  8.897026E-01  8.702406E-01  8.509328E-01  8.317884E-01  8.128157E-01
 7.940230E-01  7.754181E-01  7.570087E-01  7.388018E-01  7.208042E-01  7.030224E-01  6.854625E-01  6.681300E-01  6.510305E-01  6.341689E-01
 6.175498E-01  6.011774E-01  5.850557E-01  5.691882E-01  5.535782E-01  5.382285E-01  5.231416E-01  5.083197E-01  4.937647E-01  4.794782E-01
 4.654614E-01  4.517152E-01  4.382404E-01  4.250371E-01  4.121055E-01  3.994455E-01  3.870566E-01  3.749379E-01  3.630887E-01  3.515077E-01
 3.401935E-01  3.291445E-01  3.183588E-01  3.078344E-01  2.975692E-01  2.875606E-01  2.778062E-01  2.683033E-01  2.590489E-01  2.500401E-01
 2.412738E-01  2.327466E-01  2.244553E-01  2.163963E-01  2.085661E-01  2.009611E-01  1.935775E-01  1.864115E-01  1.794594E-01  1.727171E-01
 1.661807E-01  1.598462E-01  1.537097E-01  1.477670E-01  1.420141E-01  1.364470E-01  1.310615E-01  1.258536E-01  1.208192E-01  1.159544E-01
 1.112550E-01  1.067170E-01  1.023367E-01  9.811003E-02  9.403322E-02  9.010252E-02  8.631429E-02  8.266498E-02  7.915115E-02  7.576955E-02
 7.251706E-02  6.939082E-02  6.638820E-02  6.350689E-02  6.074496E-02  5.810093E-02  5.557390E-02  5.316367E-02  5.087088E-02  4.869724E-02
 4.664580E-02  4.472120E-02  4.293013E-02  4.128182E-02  3.978863E-02  3.846684E-02  3.733764E-02  3.642829E-02  3.577371E-02  3.541828E-02
 1  1  1  1  1  1  1  1  1  1
 1  1  1  1  1  1  1  1  1  1
 1  1  1  1  1  1  1  1  1  1
 1  1  1  1  1  1  1  1  1  1
 1  1  1  1  1  1  1  1  1  1
 1  1  1  1  1  1  1  1  1  1
 1  1  1  1  1  1  1  1  1  1
 1  1  1  1  1  1  1  1  1  1
 1  1  1  1  1  1  1  1  1  1
 1  1  1  1  1  1  1  1  1  1
