TITLE = "  1.00000E+02 [d]"
VARIABLES="X [m]","Y [m]","Z [m]","Total Tracer [M]","Material ID"
ZONE T="1.00000E+02", STRANDID=1, SOLUTIONTIME=1.00000E+02, I=101, J=2, K=2, VARLOCATION=([4-5]=CELLCENTERED), DATAPACKING=BLOCK
 0.000000E+00  1.000000E-01  2.000000E-01  3.000000E-01  4.000000E-01  5.000000E-01  6.000000E-01  7.000000E-01  8.000000E-01  9.000000E-01 
 1.000000E+00  1.100000E+00  1.200000E+00  1.300000E+00  1.400000E+00  1.500000E+00  1.600000E+00  1.700000E+00  1.800000E+00  1.900000E+00 
 2.000000E+00  2.100000E+00  2.200000E+00  2.300000E+00  2.400000E+00  2.500000E+00  2.600000E+00  2.700000E+00  2.800000E+00  2.900000E+00 
 3.000000E+00  3.100000E+00  3.200000E+00  3.300000E+00  3.400000E+00  3.500000E+00  3.600000E+00  3.700000E+00  3.800000E+00  3.900000E+00 
 4.000000E+00  4.100000E+00  4.200000E+00  4.300000E+00  4.400000E+00  4.500000E+00  4.600000E+00  4.700000E+00  4.800000E+00  4.900000E+00 
 5.000000E+00  5.100000E+00  5.200000E+00  5.300000E+00  5.400000E+00  5.500000E+00  5.600000E+00  5.700000E+00  5.800000E+00  5.900000E+00 
 6.000000E+00  6.100000E+00  6.200000E+00  6.300000E+00  6.400000E+00  6.500000E+00  6.600000E+00  6.700000E+00  6.800000E+00  6.900000E+00 
 7.000000E+00  7.100000E+00  7.200000E+00  7.300000E+00  7.400000E+00  7.500000E+00  7.600000E+00  7.700000E+00  7.800000E+00  7.900000E+00 
 8.000000E+00  8.100000E+00  8.200000E+00  8.300000E+00  8.400000E+00  8.500000E+00  8.600000E+00  8.700000E+00  8.800000E+00  8.900000E+00 
 9.000000E+00  9.100000E+00  9.200000E+00  9.300000E+00  9.400000E+00  9.500000E+00  9.600000E+00  9.700000E+00  9.800000E+00  9.900000E+00 
 1.000000E+01  0.000000E+00  1.000000E-01  2.000000E-01  3.000000E-01  4.000000E-01  5.000000E-01  6.000000E-01  7.000000E-01  8.000000E-01 
 9.000000E-01  1.000000E+00  1.100000E+00  1.200000E+00  1.300000E+00  1.400000E+00  1.500000E+00  1.600000E+00  1.700000E+00  1.800000E+00 
 1.900000E+00  2.000000E+00  2.100000E+00  2.200000E+00  2.300000E+00  2.400000E+00  2.500000E+00  2.600000E+00  2.700000E+00  2.800000E+00 
 2.900000E+00  3.000000E+00  3.100000E+00  3.200000E+00  3.300000E+00  3.400000E+00  3.500000E+00  3.600000E+00  3.700000E+00  3.800000E+00 
 3.900000E+00  4.000000E+00  4.100000E+00  4.200000E+00  4.300000E+00  4.400000E+00  4.500000E+00  4.600000E+00  4.700000E+00  4.800000E+00 
 4.900000E+00  5.000000E+00  5.100000E+00  5.200000E+00  5.300000E+00  5.400000E+00  5.500000E+00  5.600000E+00  5.700000E+00  5.800000E+00 
 5.900000E+00  6.000000E+00  6.100000E+00  6.200000E+00  6.300000E+00  6.400000E+00  6.500000E+00  6.600000E+00  6.700000E+00  6.800000E+00 
 6.900000E+00  7.000000E+00  7.100000E+00  7.200000E+00  7.300000E+00  7.400000E+00  7.500000E+00  7.600000E+00  7.700000E+00  7.800000E+00 
 7.900000E+00  8.000000E+00  8.100000E+00  8.200000E+00  8.300000E+00  8.400000E+00  8.500000E+00  8.600000E+00  8.700000E+00  8.800000E+00 
 8.900000E+00  9.000000E+00  9.100000E+00  9.200000E+00  9.300000E+00  9.400000E+00  9.500000E+00  9.600000E+00  9.700000E+00  9.800000E+00 
 9.900000E+00  1.000000E+01  0.000000E+00  1.000000E-01  2.000000E-01  3.000000E-01  4.000000E-01  5.000000E-01  6.000000E-01  7.000000E-01 
 8.000000E-01  9.000000E-01  1.000000E+00  1.100000E+00  1.200000E+00  1.300000E+00  1.400000E+00  1.500000E+00  1.600000E+00  1.700000E+00 
 1.800000E+00  1.900000E+00  2.000000E+00  2.100000E+00  2.200000E+00  2.300000E+00  2.400000E+00  2.500000E+00  2.600000E+00  2.700000E+00 
 2.800000E+00  2.900000E+00  3.000000E+00  3.100000E+00  3.200000E+00  3.300000E+00  3.400000E+00  3.500000E+00  3.600000E+00  3.700000E+00 
 3.800000E+00  3.900000E+00  4.000000E+00  4.100000E+00  4.200000E+00  4.300000E+00  4.400000E+00  4.500000E+00  4.600000E+00  4.700000E+00 
 4.800000E+00  4.900000E+00  5.000000E+00  5.100000E+00  5.200000E+00  5.300000E+00  5.400000E+00  5.500000E+00  5.600000E+00  5.700000E+00 
 5.800000E+00  5.900000E+00  6.000000E+00  6.100000E+00  6.200000E+00  6.300000E+00  6.400000E+00  6.500000E+00  6.600000E+00  6.700000E+00 
 6.800000E+00  6.900000E+00  7.000000E+00  7.100000E+00  7.200000E+00  7.300000E+00  7.400000E+00  7.500000E+00  7.600000E+00  7.700000E+00 
 7.800000E+00  7.900000E+00  8.000000E+00  8.100000E+00  8.200000E+00  8.300000E+00  8.400000E+00  8.500000E+00  8.600000E+00  8.700000E+00 
 8.800000E+00  8.900000E+00  9.000000E+00  9.100000E+00  9.200000E+00  9.300000E+00  9.400000E+00  9.500000E+00  9.600000E+00  9.700000E+00 
 9.800000E+00  9.900000E+00  1.000000E+01  0.000000E+00  1.000000E-01  2.000000E-01  3.000000E-01  4.000000E-01  5.000000E-01  6.000000E-01 
 7.000000E-01  8.000000E-01  9.000000E-01  1.000000E+00  1.100000E+00  1.200000E+00  1.300000E+00  1.400000E+00  1.500000E+00  1.600000E+00 
 1.700000E+00  1.800000E+00  1.900000E+00  2.000000E+00  2.100000E+00  2.200000E+00  2.300000E+00  2.400000E+00  2.500000E+00  2.600000E+00 
 2.700000E+00  2.800000E+00  2.900000E+00  3.000000E+00  3.100000E+00  3.200000E+00  3.300000E+00  3.400000E+00  3.500000E+00  3.600000E+00 
 3.700000E+00  3.800000E+00  3.900000E+00  4.000000E+00  4.100000E+00  4.200000E+00  4.300000E+00  4.400000E+00  4.500000E+00  4.600000E+00 
 4.700000E+00  4.800000E+00  4.900000E+00  5.000000E+00  5.100000E+00  5.200000E+00  5.300000E+00  5.400000E+00  5.500000E+00  5.600000E+00 
 5.700000E+00  5.800000E+00  5.900000E+00  6.000000E+00  6.100000E+00  6.200000E+00  6.300000E+00  6.400000E+00  6.500000E+00  6.600000E+00 
 6.700000E+00  6.800000E+00  6.900000E+00  7.000000E+00  7.100000E+00  7.200000E+00  7.300000E+00  7.400000E+00  7.500000E+00  7.600000E+00 
 7.700000E+00  7.800000E+00  7.900000E+00  8.000000E+00  8.100000E+00  8.200000E+00  8.300000E+00  8.400000E+00  8.500000E+00  8.600000E+00 
 8.700000E+00  8.800000E+00  8.900000E+00  9.000000E+00  9.100000E+00  9.200000E+00  9.300000E+00  9.400000E+00  9.500000E+00  9.600000E+00 
 9.700000E+00  9.800000E+00  9.900000E+00  1.000000E+01 
 0.000000E+00  0.000000E+00  0.000000E+00  0.000000E+00  0.000000E+00  0.000000E+00  0.000000E+00  0.000000E+00  0.000000E+00  0.000000E+00 
 0.000000E+00  0.000000E+00  0.000000E+00  0.000000E+00  0.000000E+00  0.000000E+00  0.000000E+00  0.000000E+00  0.000000E+00  0.000000E+00 
 0.000000E+00  0.000000E+00  0.000000E+00  0.000000E+00  0.000000E+00  0.000000E+00  0.000000E+00  0.000000E+00  0.000000E+00  0.000000E+00 
 0.000000E+00  0.000000E+00  0.000000E+00  0.000000E+00  0.000000E+00  0.000000E+00  0.000000E+00  0.000000E+00  0.000000E+00  0.000000E+00 
 0.000000E+00  0.000000E+00  0.000000E+00  0.000000E+00  0.000000E+00  0.000000E+00  0.000000E+00  0.000000E+00  0.000000E+00  0.000000E+00 
 0.000000E+00  0.000000E+00  0.000000E+00  0.000000E+00  0.000000E+00  0.000000E+00  0.000000E+00  0.000000E+00  0.000000E+00  0.000000E+00 
 0.000000E+00  0.000000E+00  0.000000E+00  0.000000E+00  0.000000E+00  0.000000E+00  0.000000E+00  0.000000E+00  0.000000E+00  0.000000E+00 
 0.000000E+00  0.000000E+00  0.000000E+00  0.000000E+00  0.000000E+00  0.000000E+00  0.000000E+00  0.000000E+00  0.000000E+00  0.000000E+00 
 0.000000E+00  0.000000E+00  0.000000E+00  0.000000E+00  0.000000E+00  0.000000E+00  0.000000E+00  0.000000E+00  0.000000E+00  0.000000E+00 
 0.000000E+00  0.000000E+00  0.000000E+00  0.000000E+00  0.000000E+00  0.000000E+00  0.000000E+00  0.000000E+00  0.000000E+00  0.000000E+00 
 0.000000E+00  1.000000E+00  1.000000E+00  1.000000E+00  1.000000E+00  1.000000E+00  1.000000E+00  1.000000E+00  1.000000E+00  1.000000E+00 
 1.000000E+00  1.000000E+00  1.000000E+00  1.000000E+00  1.000000E+00  1.000000E+00  1.000000E+00  1.000000E+00  1.000000E+00  1.000000E+00 
 1.000000E+00  1.000000E+00  1.000000E+00  1.000000E+00  1.000000E+00  1.000000E+00  1.000000E+00  1.000000E+00  1.000000E+00  1.000000E+00 
 1.000000E+00  1.000000E+00  1.000000E+00  1.000000E+00  1.000000E+00  1.000000E+00  1.000000E+00  1.000000E+00  1.000000E+00  1.000000E+00 
 1.000000E+00  1.000000E+00  1.000000E+00  1.000000E+00  1.000000E+00  1.000000E+00  1.000000E+00  1.000000E+00  1.000000E+00  1.000000E+00 
 1.000000E+00  1.000000E+00  1.000000E+00  1.000000E+00  1.000000E+00  1.000000E+00  1.000000E+00  1.000000E+00  1.000000E+00  1.000000E+00 
 1.000000E+00  1.000000E+00  1.000000E+00  1.000000E+00  1.000000E+00  1.000000E+00  1.000000E+00  1.000000E+00  1.000000E+00  1.000000E+00 
 1.000000E+00  1.000000E+00  1.000000E+00  1.000000E+00  1.000000E+00  1.000000E+00  1.000000E+00  1.000000E+00  1.000000E+00  1.000000E+00 
 1.000000E+00  1.000000E+00  1.000000E+00  1.000000E+00  1.000000E+00  1.000000E+00  1.000000E+00  1.000000E+00  1.000000E+00  1.000000E+00 
 1.000000E+00  1.000000E+00  1.000000E+00  1.000000E+00  1.000000E+00  1.000000E+00  1.000000E+00  1.000000E+00  1.000000E+00  1.000000E+00 
 1.000000E+00  1.000000E+00  0.000000E+00  0.000000E+00  0.000000E+00  0.000000E+00  0.000000E+00  0.000000E+00  0.000000E+00  0.000000E+00 
 0.000000E+00  0.000000E+00  0.000000E+00  0.000000E+00  0.000000E+00  0.000000E+00  0.000000E+00  0.000000E+00  0.000000E+00  0.000000E+00 
 0.000000E+00  0.000000E+00  0.000000E+00  0.000000E+00  0.000000E+00  0.000000E+00  0.000000E+00  0.000000E+00  0.000000E+00  0.000000E+00 
 0.000000E+00  0.000000E+00  0.000000E+00  0.000000E+00  0.000000E+00  0.000000E+00  0.000000E+00  0.000000E+00  0.000000E+00  0.000000E+00 
 0.000000E+00  0.000000E+00  0.000000E+00  0.000000E+00  0.000000E+00  0.000000E+00  0.000000E+00  0.000000E+00  0.000000E+00  0.000000E+00 
 0.000000E+00  0.000000E+00  0.000000E+00  0.000000E+00  0.000000E+00  0.000000E+00  0.000000E+00  0.000000E+00  0.000000E+00  0.000000E+00 
 0.000000E+00  0.000000E+00  0.000000E+00  0.000000E+00  0.000000E+00  0.000000E+00  0.000000E+00  0.000000E+00  0.000000E+00  0.000000E+00 
 0.000000E+00  0.000000E+00  0.000000E+00  0.000000E+00  0.000000E+00  0.000000E+00  0.000000E+00  0.000000E+00  0.000000E+00  0.000000E+00 
 0.000000E+00  0.000000E+00  0.000000E+00  0.000000E+00  0.000000E+00  0.000000E+00  0.000000E+00  0.000000E+00  0.000000E+00  0.000000E+00 
 0.000000E+00  0.000000E+00  0.000000E+00  0.000000E+00  0.000000E+00  0.000000E+00  0.000000E+00  0.000000E+00  0.000000E+00  0.000000E+00 
 0.000000E+00  0.000000E+00  0.000000E+00  1.000000E+00  1.000000E+00  1.000000E+00  1.000000E+00  1.000000E+00  1.000000E+00  1.000000E+00 
 1.000000E+00  1.000000E+00  1.000000E+00  1.000000E+00  1.000000E+00  1.000000E+00  1.000000E+00  1.000000E+00  1.000000E+00  1.000000E+00 
 1.000000E+00  1.000000E+00  1.000000E+00  1.000000E+00  1.000000E+00  1.000000E+00  1.000000E+00  1.000000E+00  1.000000E+00  1.000000E+00 
 1.000000E+00  1.000000E+00  1.000000E+00  1.000000E+00  1.000000E+00  1.000000E+00  1.000000E+00  1.000000E+00  1.000000E+00  1.000000E+00 
 1.000000E+00  1.000000E+00  1.000000E+00  1.000000E+00  1.000000E+00  1.000000E+00  1.000000E+00  1.000000E+00  1.000000E+00  1.000000E+00 
 1.000000E+00  1.000000E+00  1.000000E+00  1.000000E+00  1.000000E+00  1.000000E+00  1.000000E+00  1.000000E+00  1.000000E+00  1.000000E+00 
 1.000000E+00  1.000000E+00  1.000000E+00  1.000000E+00  1.000000E+00  1.000000E+00  1.000000E+00  1.000000E+00  1.000000E+00  1.000000E+00 
 1.000000E+00  1.000000E+00  1.000000E+00  1.000000E+00  1.000000E+00  1.000000E+00  1.000000E+00  1.000000E+00  1.000000E+00  1.000000E+00 
 1.000000E+00  1.000000E+00  1.000000E+00  1.000000E+00  1.000000E+00  1.000000E+00  1.000000E+00  1.000000E+00  1.000000E+00  1.000000E+00 
 1.000000E+00  1.000000E+00  1.000000E+00  1.000000E+00  1.000000E+00  1.000000E+00  1.000000E+00  1.000000E+00  1.000000E+00  1.000000E+00 
 1.000000E+00  1.000000E+00  1.000000E+00  1.000000E+00 
 0.000000E+00  0.000000E+00  0.000000E+00  0.000000E+00  0.000000E+00  0.000000E+00  0.000000E+00  0.000000E+00  0.000000E+00  0.000000E+00 
 0.000000E+00  0.000000E+00  0.000000E+00  0.000000E+00  0.000000E+00  0.000000E+00  0.000000E+00  0.000000E+00  0.000000E+00  0.000000E+00 
 0.000000E+00  0.000000E+00  0.000000E+00  0.000000E+00  0.000000E+00  0.000000E+00  0.000000E+00  0.000000E+00  0.000000E+00  0.000000E+00 
 0.000000E+00  0.000000E+00  0.000000E+00  0.000000E+00  0.000000E+00  0.000000E+00  0.000000E+00  0.000000E+00  0.000000E+00  0.000000E+00 
 0.000000E+00  0.000000E+00  0.000000E+00  0.000000E+00  0.000000E+00  0.000000E+00  0.000000E+00  0.000000E+00  0.000000E+00  0.000000E+00 
 0.000000E+00  0.000000E+00  0.000000E+00  0.000000E+00  0.000000E+00  0.000000E+00  0.000000E+00  0.000000E+00  0.000000E+00  0.000000E+00 
 0.000000E+00  0.000000E+00  0.000000E+00  0.000000E+00  0.000000E+00  0.000000E+00  0.000000E+00  0.000000E+00  0.000000E+00  0.000000E+00 
 0.000000E+00  0.000000E+00  0.000000E+00  0.000000E+00  0.000000E+00  0.000000E+00  0.000000E+00  0.000000E+00  0.000000E+00  0.000000E+00 
 0.000000E+00  0.000000E+00  0.000000E+00  0.000000E+00  0.000000E+00  0.000000E+00  0.000000E+00  0.000000E+00  0.000000E+00  0.000000E+00 
 0.000000E+00  0.000000E+00  0.000000E+00  0.000000E+00  0.000000E+00  0.000000E+00  0.000000E+00  0.000000E+00  0.000000E+00  0.000000E+00 
 0.000000E+00  0.000000E+00  0.000000E+00  0.000000E+00  0.000000E+00  0.000000E+00  0.000000E+00  0.000000E+00  0.000000E+00  0.000000E+00 
 0.000000E+00  0.000000E+00  0.000000E+00  0.000000E+00  0.000000E+00  0.000000E+00  0.000000E+00  0.000000E+00  0.000000E+00  0.000000E+00 
 0.000000E+00  0.000000E+00  0.000000E+00  0.000000E+00  0.000000E+00  0.000000E+00  0.000000E+00  0.000000E+00  0.000000E+00  0.000000E+00 
 0.000000E+00  0.000000E+00  0.000000E+00  0.000000E+00  0.000000E+00  0.000000E+00  0.000000E+00  0.000000E+00  0.000000E+00  0.000000E+00 
 0.000000E+00  0.000000E+00  0.000000E+00  0.000000E+00  0.000000E+00  0.000000E+00  0.000000E+00  0.000000E+00  0.000000E+00  0.000000E+00 
 0.000000E+00  0.000000E+00  0.000000E+00  0.000000E+00  0.000000E+00  0.000000E+00  0.000000E+00  0.000000E+00  0.000000E+00  0.000000E+00 
 0.000000E+00  0.000000E+00  0.000000E+00  0.000000E+00  0.000000E+00  0.000000E+00  0.000000E+00  0.000000E+00  0.000000E+00  0.000000E+00 
 0.000000E+00  0.000000E+00  0.000000E+00  0.000000E+00  0.000000E+00  0.000000E+00  0.000000E+00  0.000000E+00  0.000000E+00  0.000000E+00 
 0.000000E+00  0.000000E+00  0.000000E+00  0.000000E+00  0.000000E+00  0.000000E+00  0.000000E+00  0.000000E+00  0.000000E+00  0.000000E+00 
 0.000000E+00  0.000000E+00  0.000000E+00  0.000000E+00  0.000000E+00  0.000000E+00  0.000000E+00  0.000000E+00  0.000000E+00  0.000000E+00 
 0.000000E+00  0.000000E+00  1.000000E+00  1.000000E+00  1.000000E+00  1.000000E+00  1.000000E+00  1.000000E+00  1.000000E+00  1.000000E+00 
 1.000000E+00  1.000000E+00  1.000000E+00  1.000000E+00  1.000000E+00  1.000000E+00  1.000000E+00  1.000000E+00  1.000000E+00  1.000000E+00 
 1.000000E+00  1.000000E+00  1.000000E+00  1.000000E+00  1.000000E+00  1.000000E+00  1.000000E+00  1.000000E+00  1.000000E+00  1.000000E+00 
 1.000000E+00  1.000000E+00  1.000000E+00  1.000000E+00  1.000000E+00  1.000000E+00  1.000000E+00  1.000000E+00  1.000000E+00  1.000000E+00 
 1.000000E+00  1.000000E+00  1.000000E+00  1.000000E+00  1.000000E+00  1.000000E+00  1.000000E+00  1.000000E+00  1.000000E+00  1.000000E+00 
 1.000000E+00  1.000000E+00  1.000000E+00  1.000000E+00  1.000000E+00  1.000000E+00  1.000000E+00  1.000000E+00  1.000000E+00  1.000000E+00 
 1.000000E+00  1.000000E+00  1.000000E+00  1.000000E+00  1.000000E+00  1.000000E+00  1.000000E+00  1.000000E+00  1.000000E+00  1.000000E+00 
 1.000000E+00  1.000000E+00  1.000000E+00  1.000000E+00  1.000000E+00  1.000000E+00  1.000000E+00  1.000000E+00  1.000000E+00  1.000000E+00 
 1.000000E+00  1.000000E+00  1.000000E+00  1.000000E+00  1.000000E+00  1.000000E+00  1.000000E+00  1.000000E+00  1.000000E+00  1.000000E+00 
 1.000000E+00  1.000000E+00  1.000000E+00  1.000000E+00  1.000000E+00  1.000000E+00  1.000000E+00  1.000000E+00  1.000000E+00  1.000000E+00 
 1.000000E+00  1.000000E+00  1.000000E+00  1.000000E+00  1.000000E+00  1.000000E+00  1.000000E+00  1.000000E+00  1.000000E+00  1.000000E+00 
 1.000000E+00  1.000000E+00  1.000000E+00  1.000000E+00  1.000000E+00  1.000000E+00  1.000000E+00  1.000000E+00  1.000000E+00  1.000000E+00 
 1.000000E+00  1.000000E+00  1.000000E+00  1.000000E+00  1.000000E+00  1.000000E+00  1.000000E+00  1.000000E+00  1.000000E+00  1.000000E+00 
 1.000000E+00  1.000000E+00  1.000000E+00  1.000000E+00  1.000000E+00  1.000000E+00  1.000000E+00  1.000000E+00  1.000000E+00  1.000000E+00 
 1.000000E+00  1.000000E+00  1.000000E+00  1.000000E+00  1.000000E+00  1.000000E+00  1.000000E+00  1.000000E+00  1.000000E+00  1.000000E+00 
 1.000000E+00  1.000000E+00  1.000000E+00  1.000000E+00  1.000000E+00  1.000000E+00  1.000000E+00  1.000000E+00  1.000000E+00  1.000000E+00 
 1.000000E+00  1.000000E+00  1.000000E+00  1.000000E+00  1.000000E+00  1.000000E+00  1.000000E+00  1.000000E+00  1.000000E+00  1.000000E+00 
 1.000000E+00  1.000000E+00  1.000000E+00  1.000000E+00  1.000000E+00  1.000000E+00  1.000000E+00  1.000000E+00  1.000000E+00  1.000000E+00 
 1.000000E+00  1.000000E+00  1.000000E+00  1.000000E+00  1.000000E+00  1.000000E+00  1.000000E+00  1.000000E+00  1.000000E+00  1.000000E+00 
 1.000000E+00  1.000000E+00  1.000000E+00  1.000000E+00  1.000000E+00  1.000000E+00  1.000000E+00  1.000000E+00  1.000000E+00  1.000000E+00 
 1.000000E+00  1.000000E+00  1.000000E+00  1.000000E+00 
 9.762689E-01  9.334970E-01  8.915428E-01  8.504795E-01  8.103720E-01  7.712769E-01  7.332424E-01  6.963092E-01  6.605108E-01  6.258736E-01
 5.924176E-01  5.601568E-01  5.290991E-01  4.992475E-01  4.705996E-01  4.431487E-01  4.168838E-01  3.917900E-01  3.678491E-01  3.450399E-01
 3.233382E-01  3.027178E-01  2.831501E-01  2.646052E-01  2.470514E-01  2.304562E-01  2.147861E-01  2.000068E-01  1.860839E-01  1.729826E-01
 1.606681E-01  1.491059E-01  1.382617E-01  1.281017E-01  1.185925E-01  1.097017E-01  1.013973E-01  9.364833E-02  8.642474E-02  7.969736E-02
 7.343802E-02  6.761958E-02  6.221595E-02  5.720210E-02  5.255407E-02  4.824895E-02  4.426491E-02  4.058115E-02  3.717793E-02  3.403650E-02
 3.113910E-02  2.846897E-02  2.601024E-02  2.374797E-02  2.166809E-02  1.975739E-02  1.800345E-02  1.639461E-02  1.491999E-02  1.356938E-02
 1.233326E-02  1.120275E-02  1.016956E-02  9.225977E-03  8.364842E-03  7.579495E-03  6.863756E-03  6.211901E-03  5.618628E-03  5.079033E-03
 4.588582E-03  4.143094E-03  3.738709E-03  3.371871E-03  3.039308E-03  2.738008E-03  2.465205E-03  2.218359E-03  1.995142E-03  1.793419E-03
 1.611237E-03  1.446809E-03  1.298504E-03  1.164835E-03  1.044448E-03  9.361129E-04  8.387153E-04  7.512500E-04  6.728150E-04  6.026074E-04
 5.399206E-04  4.841445E-04  4.347682E-04  3.913850E-04  3.537036E-04  3.215633E-04  2.949575E-04  2.740667E-04  2.593040E-04  2.513780E-04
 1  1  1  1  1  1  1  1  1  1
 1  1  1  1  1  1  1  1  1  1
 1  1  1  1  1  1  1  1  1  1
 1  1  1  1  1  1  1  1  1  1
 1  1  1  1  1  1  1  1  1  1
 1  1  1  1  1  1  1  1  1  1
 1  1  1  1  1  1  1  1  1  1
 1  1  1  1  1  1  1  1  1  1
 1  1  1  1  1  1  1  1  1  1
 1  1  1  1  1  1  1  1  1  1
