TITLE = "  1.00000E+02 [d]"
VARIABLES="dist [m]","2-Free ion Tracer [M] obs (20) (1.95 0.5 0.5)"
ZONE T="  1.00000E+02", I=   50,J=1, K=1, DATAPACKING=POINT
 1.000000E-02  1.000000E-20 
 3.000000E-02  1.000000E-20 
 5.000000E-02  1.000000E-20 
 7.000000E-02  1.000000E-20 
 9.000000E-02  1.000000E-20 
 1.100000E-01  1.000000E-20 
 1.300000E-01  1.000000E-20 
 1.500000E-01  1.000000E-20 
 1.700000E-01  1.000000E-20 
 1.900000E-01  1.000000E-20 
 2.100000E-01  1.000000E-20 
 2.300000E-01  1.000000E-20 
 2.500000E-01  1.000000E-20 
 2.700000E-01  1.000000E-20 
 2.900000E-01  1.000000E-20 
 3.100000E-01  1.000001E-20 
 3.300000E-01  1.000006E-20 
 3.500000E-01  1.000064E-20 
 3.700000E-01  1.000616E-20 
 3.900000E-01  1.005826E-20 
 4.100000E-01  1.053907E-20 
 4.300000E-01  1.487395E-20 
 4.500000E-01  5.301854E-20 
 4.700000E-01  3.802977E-19 
 4.900000E-01  3.115402E-18 
 5.100000E-01  2.535400E-17 
 5.300000E-01  2.010617E-16 
 5.500000E-01  1.548337E-15 
 5.700000E-01  1.155965E-14 
 5.900000E-01  8.354327E-14 
 6.100000E-01  5.835396E-13 
 6.300000E-01  3.932512E-12 
 6.500000E-01  2.552088E-11 
 6.700000E-01  1.591696E-10 
 6.900000E-01  9.519090E-10 
 7.100000E-01  5.445576E-09 
 7.300000E-01  2.971974E-08 
 7.500000E-01  1.542851E-07 
 7.700000E-01  7.594108E-07 
 7.900000E-01  3.531456E-06 
 8.100000E-01  1.545409E-05 
 8.300000E-01  6.336554E-05 
 8.500000E-01  2.422668E-04 
 8.700000E-01  8.591449E-04 
 8.900000E-01  2.809687E-03 
 9.100000E-01  8.420865E-03 
 9.300000E-01  2.297745E-02 
 9.500000E-01  5.670113E-02 
 9.700000E-01  1.257443E-01 
 9.900000E-01  2.493225E-01 
